 Entering Gaussian System, Link 0=g16
 Input=H2O_3-21g.com
 Output=H2O_3-21g.log
 Initial command:
 /opt/QChem/g16/l1.exe "/scratch/heiclj/Gau-1650453.inp" -scrdir="/scratch/heiclj/"
 Entering Link 1 = /opt/QChem/g16/l1.exe PID=   1650463.
  
 Copyright (c) 1988-2019, Gaussian, Inc.  All Rights Reserved.
  
 This is part of the Gaussian(R) 16 program.  It is based on
 the Gaussian(R) 09 system (copyright 2009, Gaussian, Inc.),
 the Gaussian(R) 03 system (copyright 2003, Gaussian, Inc.),
 the Gaussian(R) 98 system (copyright 1998, Gaussian, Inc.),
 the Gaussian(R) 94 system (copyright 1995, Gaussian, Inc.),
 the Gaussian 92(TM) system (copyright 1992, Gaussian, Inc.),
 the Gaussian 90(TM) system (copyright 1990, Gaussian, Inc.),
 the Gaussian 88(TM) system (copyright 1988, Gaussian, Inc.),
 the Gaussian 86(TM) system (copyright 1986, Carnegie Mellon
 University), and the Gaussian 82(TM) system (copyright 1983,
 Carnegie Mellon University). Gaussian is a federally registered
 trademark of Gaussian, Inc.
  
 This software contains proprietary and confidential information,
 including trade secrets, belonging to Gaussian, Inc.
  
 This software is provided under written license and may be
 used, copied, transmitted, or stored only in accord with that
 written license.
  
 The following legend is applicable only to US Government
 contracts under FAR:
  
                    RESTRICTED RIGHTS LEGEND
  
 Use, reproduction and disclosure by the US Government is
 subject to restrictions as set forth in subparagraphs (a)
 and (c) of the Commercial Computer Software - Restricted
 Rights clause in FAR 52.227-19.
  
 Gaussian, Inc.
 340 Quinnipiac St., Bldg. 40, Wallingford CT 06492
  
  
 ---------------------------------------------------------------
 Warning -- This program may not be used in any manner that
 competes with the business of Gaussian, Inc. or will provide
 assistance to any competitor of Gaussian, Inc.  The licensee
 of this program is prohibited from giving any competitor of
 Gaussian, Inc. access to this program.  By using this program,
 the user acknowledges that Gaussian, Inc. is engaged in the
 business of creating and licensing software in the field of
 computational chemistry and represents and warrants to the
 licensee that it is not a competitor of Gaussian, Inc. and that
 it will not use this program in any manner prohibited above.
 ---------------------------------------------------------------
  

 Cite this work as:
 Gaussian 16, Revision C.01,
 M. J. Frisch, G. W. Trucks, H. B. Schlegel, G. E. Scuseria, 
 M. A. Robb, J. R. Cheeseman, G. Scalmani, V. Barone, 
 G. A. Petersson, H. Nakatsuji, X. Li, M. Caricato, A. V. Marenich, 
 J. Bloino, B. G. Janesko, R. Gomperts, B. Mennucci, H. P. Hratchian, 
 J. V. Ortiz, A. F. Izmaylov, J. L. Sonnenberg, D. Williams-Young, 
 F. Ding, F. Lipparini, F. Egidi, J. Goings, B. Peng, A. Petrone, 
 T. Henderson, D. Ranasinghe, V. G. Zakrzewski, J. Gao, N. Rega, 
 G. Zheng, W. Liang, M. Hada, M. Ehara, K. Toyota, R. Fukuda, 
 J. Hasegawa, M. Ishida, T. Nakajima, Y. Honda, O. Kitao, H. Nakai, 
 T. Vreven, K. Throssell, J. A. Montgomery, Jr., J. E. Peralta, 
 F. Ogliaro, M. J. Bearpark, J. J. Heyd, E. N. Brothers, K. N. Kudin, 
 V. N. Staroverov, T. A. Keith, R. Kobayashi, J. Normand, 
 K. Raghavachari, A. P. Rendell, J. C. Burant, S. S. Iyengar, 
 J. Tomasi, M. Cossi, J. M. Millam, M. Klene, C. Adamo, R. Cammi, 
 J. W. Ochterski, R. L. Martin, K. Morokuma, O. Farkas, 
 J. B. Foresman, and D. J. Fox, Gaussian, Inc., Wallingford CT, 2019.
 
 ******************************************
 Gaussian 16:  ES64L-G16RevC.01  3-Jul-2019
                 4-Jan-2026 
 ******************************************
 -----------
 #p hf/3-21g
 -----------
 1/38=1,172=1/1;
 2/12=2,17=6,18=5,40=1/2;
 3/5=5,11=9,25=1,30=1/1,2,3;
 4//1;
 5/5=2,38=5/2;
 6/7=2,8=2,9=2,10=2,28=1/1;
 99/5=1,9=1/99;
 Leave Link    1 at Sun Jan  4 22:24:07 2026, MaxMem=           0 cpu:               0.0 elap:               0.1
 (Enter /opt/QChem/g16/l101.exe)
 -------------------
 Title Card Required
 -------------------
 Symbolic Z-matrix:
 Charge =  0 Multiplicity = 1
 O                     0.10297   0.4119    0. 
 H                     1.06297   0.4119    0. 
 H                    -0.21748   1.31684   0. 
 
 ITRead=  0  0  0
 MicOpt= -1 -1 -1
 NAtoms=      3 NQM=        3 NQMF=       0 NMMI=      0 NMMIF=      0
                NMic=       0 NMicF=      0.
                    Isotopes and Nuclear Properties:
 (Nuclear quadrupole moments (NQMom) in fm**2, nuclear magnetic moments (NMagM)
  in nuclear magnetons)

  Atom         1           2           3
 IAtWgt=          16           1           1
 AtmWgt=  15.9949146   1.0078250   1.0078250
 NucSpn=           0           1           1
 AtZEff=  -0.0000000  -0.0000000  -0.0000000
 NQMom=    0.0000000   0.0000000   0.0000000
 NMagM=    0.0000000   2.7928460   2.7928460
 AtZNuc=   8.0000000   1.0000000   1.0000000
 Leave Link  101 at Sun Jan  4 22:24:08 2026, MaxMem=   104857600 cpu:               0.3 elap:               0.3
 (Enter /opt/QChem/g16/l202.exe)
                          Input orientation:                          
 ---------------------------------------------------------------------
 Center     Atomic      Atomic             Coordinates (Angstroms)
 Number     Number       Type             X           Y           Z
 ---------------------------------------------------------------------
      1          8           0        0.102975    0.411899    0.000000
      2          1           0        1.062975    0.411899    0.000000
      3          1           0       -0.217480    1.316835    0.000000
 ---------------------------------------------------------------------
                    Distance matrix (angstroms):
                    1          2          3
     1  O    0.000000
     2  H    0.960000   0.000000
     3  H    0.960000   1.567952   0.000000
 Stoichiometry    H2O
 Framework group  C2V[C2(O),SGV(H2)]
 Deg. of freedom     2
 Full point group                 C2V     NOp   4
 Largest Abelian subgroup         C2V     NOp   4
 Largest concise Abelian subgroup C2      NOp   2
                         Standard orientation:                         
 ---------------------------------------------------------------------
 Center     Atomic      Atomic             Coordinates (Angstroms)
 Number     Number       Type             X           Y           Z
 ---------------------------------------------------------------------
      1          8           0        0.000000   -0.000000    0.110812
      2          1           0        0.000000    0.783976   -0.443248
      3          1           0       -0.000000   -0.783976   -0.443248
 ---------------------------------------------------------------------
 Rotational constants (GHZ):         919.6759688         407.9403309         282.5913776
 Leave Link  202 at Sun Jan  4 22:24:08 2026, MaxMem=   104857600 cpu:               0.0 elap:               0.0
 (Enter /opt/QChem/g16/l301.exe)
 Standard basis: 3-21G (6D, 7F)
 Ernie: Thresh=  0.10000D-02 Tol=  0.10000D-05 Strict=F.
 There are     7 symmetry adapted cartesian basis functions of A1  symmetry.
 There are     0 symmetry adapted cartesian basis functions of A2  symmetry.
 There are     2 symmetry adapted cartesian basis functions of B1  symmetry.
 There are     4 symmetry adapted cartesian basis functions of B2  symmetry.
 There are     7 symmetry adapted basis functions of A1  symmetry.
 There are     0 symmetry adapted basis functions of A2  symmetry.
 There are     2 symmetry adapted basis functions of B1  symmetry.
 There are     4 symmetry adapted basis functions of B2  symmetry.
    13 basis functions,    21 primitive gaussians,    13 cartesian basis functions
     5 alpha electrons        5 beta electrons
       nuclear repulsion energy         9.1571160303 Hartrees.
 IExCor=    0 DFT=F Ex=HF Corr=None ExCW=0 ScaHFX=  1.000000
 ScaDFX=  1.000000  1.000000  1.000000  1.000000 ScalE2=  1.000000  1.000000
 IRadAn=      5 IRanWt=     -1 IRanGd=            0 ICorTp=0 IEmpDi=  4
 NAtoms=    3 NActive=    3 NUniq=    2 SFac= 2.25D+00 NAtFMM=   60 NAOKFM=F Big=F
 Integral buffers will be    131072 words long.
 Raffenetti 1 integral format.
 Two-electron integral symmetry is turned on.
 Leave Link  301 at Sun Jan  4 22:24:08 2026, MaxMem=   104857600 cpu:               0.1 elap:               0.1
 (Enter /opt/QChem/g16/l302.exe)
 NPDir=0 NMtPBC=     1 NCelOv=     1 NCel=       1 NClECP=     1 NCelD=      1
         NCelK=      1 NCelE2=     1 NClLst=     1 CellRange=     0.0.
 One-electron integrals computed using PRISM.
 One-electron integral symmetry used in STVInt
 NBasis=    13 RedAO= T EigKep=  1.10D-01  NBF=     7     0     2     4
 NBsUse=    13 1.00D-06 EigRej= -1.00D+00 NBFU=     7     0     2     4
 Leave Link  302 at Sun Jan  4 22:24:09 2026, MaxMem=   104857600 cpu:               0.1 elap:               0.1
 (Enter /opt/QChem/g16/l303.exe)
 DipDrv:  MaxL=1.
 Leave Link  303 at Sun Jan  4 22:24:09 2026, MaxMem=   104857600 cpu:               0.0 elap:               0.1
 (Enter /opt/QChem/g16/l401.exe)
 ExpMin= 1.83D-01 ExpMax= 3.22D+02 ExpMxC= 3.22D+02 IAcc=3 IRadAn=         5 AccDes= 0.00D+00
 Harris functional with IExCor=  205 and IRadAn=       5 diagonalized for initial guess.
 HarFok:  IExCor=  205 AccDes= 0.00D+00 IRadAn=         5 IDoV= 1 UseB2=F ITyADJ=14
 ICtDFT=  3500011 ScaDFX=  1.000000  1.000000  1.000000  1.000000
 FoFCou: FMM=F IPFlag=           0 FMFlag=      100000 FMFlg1=           0
         NFxFlg=           0 DoJE=T BraDBF=F KetDBF=T FulRan=T
         wScrn=  0.000000 ICntrl=       500 IOpCl=  0 I1Cent=   200000004 NGrid=           0
         NMat0=    1 NMatS0=      1 NMatT0=    0 NMatD0=    1 NMtDS0=    0 NMtDT0=    0
 Petite list used in FoFCou.
 Harris En= -75.6796353957524    
 JPrj=0 DoOrth=F DoCkMO=F.
 Initial guess orbital symmetries:
       Occupied  (A1) (A1) (B2) (A1) (B1)
       Virtual   (A1) (B2) (B2) (A1) (B1) (A1) (B2) (A1)
 The electronic state of the initial guess is 1-A1.
 Leave Link  401 at Sun Jan  4 22:24:09 2026, MaxMem=   104857600 cpu:               0.1 elap:               0.2
 (Enter /opt/QChem/g16/l502.exe)
 Keep R1 ints in memory in symmetry-blocked form, NReq=807533.
 FoFCou: FMM=F IPFlag=           0 FMFlag=           0 FMFlg1=           0
         NFxFlg=           0 DoJE=F BraDBF=F KetDBF=F FulRan=T
         wScrn=  0.000000 ICntrl=       600 IOpCl=  0 I1Cent=           0 NGrid=           0
         NMat0=    1 NMatS0=     91 NMatT0=    0 NMatD0=    1 NMtDS0=    0 NMtDT0=    0
 Petite list used in FoFCou.
 Closed shell SCF:
 Using DIIS extrapolation, IDIIS=  1040.
 NGot=   104857600 LenX=   104854054 LenY=   104853172
 Requested convergence on RMS density matrix=1.00D-08 within 128 cycles.
 Requested convergence on MAX density matrix=1.00D-06.
 Requested convergence on             energy=1.00D-06.
 No special actions if energy rises.

 Cycle   1  Pass 1  IDiag  1:
 E= -75.5097566945503    
 DIIS: error= 9.62D-02 at cycle   1 NSaved=   1.
 NSaved= 1 IEnMin= 1 EnMin= -75.5097566945503     IErMin= 1 ErrMin= 9.62D-02
 ErrMax= 9.62D-02  0.00D+00 EMaxC= 1.00D-01 BMatC= 1.28D-01 BMatP= 1.28D-01
 IDIUse=3 WtCom= 3.83D-02 WtEn= 9.62D-01
 Coeff-Com:  0.100D+01
 Coeff-En:   0.100D+01
 Coeff:      0.100D+01
 Gap=     0.624 Goal=   None    Shift=    0.000
 GapD=    0.624 DampG=2.000 DampE=0.500 DampFc=1.0000 IDamp=-1.
 RMSDP=1.88D-02 MaxDP=8.55D-02              OVMax= 1.18D-01

 Cycle   2  Pass 1  IDiag  1:
 E= -75.5683054579622     Delta-E=       -0.058548763412 Rises=F Damp=F
 DIIS: error= 4.73D-02 at cycle   2 NSaved=   2.
 NSaved= 2 IEnMin= 2 EnMin= -75.5683054579622     IErMin= 2 ErrMin= 4.73D-02
 ErrMax= 4.73D-02  0.00D+00 EMaxC= 1.00D-01 BMatC= 3.16D-02 BMatP= 1.28D-01
 IDIUse=3 WtCom= 5.27D-01 WtEn= 4.73D-01
 Coeff-Com:  0.311D+00 0.689D+00
 Coeff-En:   0.000D+00 0.100D+01
 Coeff:      0.164D+00 0.836D+00
 Gap=     0.758 Goal=   None    Shift=    0.000
 RMSDP=8.06D-03 MaxDP=4.32D-02 DE=-5.85D-02 OVMax= 3.37D-02

 Cycle   3  Pass 1  IDiag  1:
 E= -75.5845908788435     Delta-E=       -0.016285420881 Rises=F Damp=F
 DIIS: error= 1.21D-02 at cycle   3 NSaved=   3.
 NSaved= 3 IEnMin= 3 EnMin= -75.5845908788435     IErMin= 3 ErrMin= 1.21D-02
 ErrMax= 1.21D-02  0.00D+00 EMaxC= 1.00D-01 BMatC= 1.84D-03 BMatP= 3.16D-02
 IDIUse=3 WtCom= 8.79D-01 WtEn= 1.21D-01
 Coeff-Com: -0.284D-01 0.160D+00 0.868D+00
 Coeff-En:   0.000D+00 0.000D+00 0.100D+01
 Coeff:     -0.250D-01 0.141D+00 0.884D+00
 Gap=     0.736 Goal=   None    Shift=    0.000
 RMSDP=1.84D-03 MaxDP=7.50D-03 DE=-1.63D-02 OVMax= 1.09D-02

 Cycle   4  Pass 1  IDiag  1:
 E= -75.5857937188242     Delta-E=       -0.001202839981 Rises=F Damp=F
 DIIS: error= 1.53D-03 at cycle   4 NSaved=   4.
 NSaved= 4 IEnMin= 4 EnMin= -75.5857937188242     IErMin= 4 ErrMin= 1.53D-03
 ErrMax= 1.53D-03  0.00D+00 EMaxC= 1.00D-01 BMatC= 2.04D-05 BMatP= 1.84D-03
 IDIUse=3 WtCom= 9.85D-01 WtEn= 1.53D-02
 Coeff-Com:  0.779D-02-0.785D-01-0.258D+00 0.133D+01
 Coeff-En:   0.000D+00 0.000D+00 0.000D+00 0.100D+01
 Coeff:      0.767D-02-0.773D-01-0.254D+00 0.132D+01
 Gap=     0.739 Goal=   None    Shift=    0.000
 RMSDP=2.71D-04 MaxDP=1.60D-03 DE=-1.20D-03 OVMax= 1.21D-03

 Cycle   5  Pass 1  IDiag  1:
 E= -75.5858097490920     Delta-E=       -0.000016030268 Rises=F Damp=F
 DIIS: error= 1.01D-04 at cycle   5 NSaved=   5.
 NSaved= 5 IEnMin= 5 EnMin= -75.5858097490920     IErMin= 5 ErrMin= 1.01D-04
 ErrMax= 1.01D-04  0.00D+00 EMaxC= 1.00D-01 BMatC= 8.72D-08 BMatP= 2.04D-05
 IDIUse=3 WtCom= 9.99D-01 WtEn= 1.01D-03
 Coeff-Com: -0.190D-02 0.218D-01 0.674D-01-0.432D+00 0.134D+01
 Coeff-En:   0.000D+00 0.000D+00 0.000D+00 0.000D+00 0.100D+01
 Coeff:     -0.190D-02 0.218D-01 0.673D-01-0.432D+00 0.134D+01
 Gap=     0.740 Goal=   None    Shift=    0.000
 RMSDP=5.38D-05 MaxDP=2.63D-04 DE=-1.60D-05 OVMax= 3.43D-04

 Cycle   6  Pass 1  IDiag  1:
 E= -75.5858099671657     Delta-E=       -0.000000218074 Rises=F Damp=F
 DIIS: error= 1.62D-05 at cycle   6 NSaved=   6.
 NSaved= 6 IEnMin= 6 EnMin= -75.5858099671657     IErMin= 6 ErrMin= 1.62D-05
 ErrMax= 1.62D-05  0.00D+00 EMaxC= 1.00D-01 BMatC= 3.10D-09 BMatP= 8.72D-08
 IDIUse=1 WtCom= 1.00D+00 WtEn= 0.00D+00
 Coeff-Com:  0.999D-03-0.118D-01-0.360D-01 0.241D+00-0.831D+00 0.164D+01
 Coeff:      0.999D-03-0.118D-01-0.360D-01 0.241D+00-0.831D+00 0.164D+01
 Gap=     0.740 Goal=   None    Shift=    0.000
 RMSDP=1.16D-05 MaxDP=5.07D-05 DE=-2.18D-07 OVMax= 7.84D-05

 Cycle   7  Pass 1  IDiag  1:
 E= -75.5858099771261     Delta-E=       -0.000000009960 Rises=F Damp=F
 DIIS: error= 1.81D-06 at cycle   7 NSaved=   7.
 NSaved= 7 IEnMin= 7 EnMin= -75.5858099771261     IErMin= 7 ErrMin= 1.81D-06
 ErrMax= 1.81D-06  0.00D+00 EMaxC= 1.00D-01 BMatC= 4.92D-11 BMatP= 3.10D-09
 IDIUse=1 WtCom= 1.00D+00 WtEn= 0.00D+00
 Coeff-Com: -0.546D-04 0.706D-03 0.208D-02-0.164D-01 0.683D-01-0.227D+00
 Coeff-Com:  0.117D+01
 Coeff:     -0.546D-04 0.706D-03 0.208D-02-0.164D-01 0.683D-01-0.227D+00
 Coeff:      0.117D+01
 Gap=     0.740 Goal=   None    Shift=    0.000
 RMSDP=1.17D-06 MaxDP=5.25D-06 DE=-9.96D-09 OVMax= 7.39D-06

 Cycle   8  Pass 1  IDiag  1:
 E= -75.5858099772312     Delta-E=       -0.000000000105 Rises=F Damp=F
 DIIS: error= 2.32D-07 at cycle   8 NSaved=   8.
 NSaved= 8 IEnMin= 8 EnMin= -75.5858099772312     IErMin= 8 ErrMin= 2.32D-07
 ErrMax= 2.32D-07  0.00D+00 EMaxC= 1.00D-01 BMatC= 4.99D-13 BMatP= 4.92D-11
 IDIUse=1 WtCom= 1.00D+00 WtEn= 0.00D+00
 Coeff-Com: -0.173D-05 0.331D-05 0.273D-04 0.423D-03-0.408D-02 0.261D-01
 Coeff-Com: -0.254D+00 0.123D+01
 Coeff:     -0.173D-05 0.331D-05 0.273D-04 0.423D-03-0.408D-02 0.261D-01
 Coeff:     -0.254D+00 0.123D+01
 Gap=     0.740 Goal=   None    Shift=    0.000
 RMSDP=1.29D-07 MaxDP=8.57D-07 DE=-1.05D-10 OVMax= 7.02D-07

 Cycle   9  Pass 1  IDiag  1:
 E= -75.5858099772322     Delta-E=       -0.000000000001 Rises=F Damp=F
 DIIS: error= 2.22D-08 at cycle   9 NSaved=   9.
 NSaved= 9 IEnMin= 9 EnMin= -75.5858099772322     IErMin= 9 ErrMin= 2.22D-08
 ErrMax= 2.22D-08  0.00D+00 EMaxC= 1.00D-01 BMatC= 6.11D-15 BMatP= 4.99D-13
 IDIUse=1 WtCom= 1.00D+00 WtEn= 0.00D+00
 Coeff-Com: -0.250D-07 0.336D-05 0.787D-05-0.162D-03 0.995D-03-0.509D-02
 Coeff-Com:  0.443D-01-0.258D+00 0.122D+01
 Coeff:     -0.250D-07 0.336D-05 0.787D-05-0.162D-03 0.995D-03-0.509D-02
 Coeff:      0.443D-01-0.258D+00 0.122D+01
 Gap=     0.740 Goal=   None    Shift=    0.000
 RMSDP=1.08D-08 MaxDP=4.98D-08 DE=-1.01D-12 OVMax= 6.67D-08

 Cycle  10  Pass 1  IDiag  1:
 E= -75.5858099772323     Delta-E=       -0.000000000000 Rises=F Damp=F
 DIIS: error= 8.12D-10 at cycle  10 NSaved=  10.
 NSaved=10 IEnMin=10 EnMin= -75.5858099772323     IErMin=10 ErrMin= 8.12D-10
 ErrMax= 8.12D-10  0.00D+00 EMaxC= 1.00D-01 BMatC= 1.53D-17 BMatP= 6.11D-15
 IDIUse=1 WtCom= 1.00D+00 WtEn= 0.00D+00
 Coeff-Com: -0.249D-07 0.571D-07 0.370D-06 0.582D-05-0.516D-04 0.313D-03
 Coeff-Com: -0.301D-02 0.213D-01-0.144D+00 0.113D+01
 Coeff:     -0.249D-07 0.571D-07 0.370D-06 0.582D-05-0.516D-04 0.313D-03
 Coeff:     -0.301D-02 0.213D-01-0.144D+00 0.113D+01
 Gap=     0.740 Goal=   None    Shift=    0.000
 RMSDP=4.13D-10 MaxDP=1.42D-09 DE=-2.84D-14 OVMax= 2.33D-09

 SCF Done:  E(RHF) =  -75.5858099772     A.U. after   10 cycles
            NFock= 10  Conv=0.41D-09     -V/T= 2.0018
 KE= 7.544716226440D+01 PE=-1.980498358026D+02 EE= 3.785974753071D+01
 Leave Link  502 at Sun Jan  4 22:24:10 2026, MaxMem=   104857600 cpu:               0.1 elap:               0.1
 (Enter /opt/QChem/g16/l601.exe)
 Copying SCF densities to generalized density rwf, IOpCl= 0 IROHF=0.

 **********************************************************************

            Population analysis using the SCF Density.

 **********************************************************************

 Orbital symmetries:
       Occupied  (A1) (A1) (B2) (A1) (B1)
       Virtual   (A1) (B2) (B2) (A1) (B1) (A1) (B2) (A1)
 The electronic state is 1-A1.
 Alpha  occ. eigenvalues --  -20.42410  -1.32206  -0.69197  -0.52705  -0.47640
 Alpha virt. eigenvalues --    0.26331   0.36340   1.22115   1.27317   1.78510
 Alpha virt. eigenvalues --    1.85832   2.02914   3.10431
          Condensed to atoms (all electrons):
               1          2          3
     1  O    8.207310   0.266203   0.266203
     2  H    0.266203   0.401327  -0.037389
     3  H    0.266203  -0.037389   0.401327
 Mulliken charges:
               1
     1  O   -0.739717
     2  H    0.369859
     3  H    0.369859
 Sum of Mulliken charges =  -0.00000
 Mulliken charges with hydrogens summed into heavy atoms:
               1
     1  O   -0.000000
 Electronic spatial extent (au):  <R**2>=             18.5141
 Charge=             -0.0000 electrons
 Dipole moment (field-independent basis, Debye):
    X=             -0.0000    Y=              0.0000    Z=             -2.3573  Tot=              2.3573
 Quadrupole moment (field-independent basis, Debye-Ang):
   XX=             -6.8230   YY=             -3.8987   ZZ=             -5.9169
   XY=              0.0000   XZ=              0.0000   YZ=             -0.0000
 Traceless Quadrupole moment (field-independent basis, Debye-Ang):
   XX=             -1.2768   YY=              1.6475   ZZ=             -0.3707
   XY=              0.0000   XZ=              0.0000   YZ=             -0.0000
 Octapole moment (field-independent basis, Debye-Ang**2):
  XXX=              0.0000  YYY=              0.0000  ZZZ=             -1.1675  XYY=             -0.0000
  XXY=             -0.0000  XXZ=             -0.3047  XZZ=             -0.0000  YZZ=              0.0000
  YYZ=             -1.2161  XYZ=             -0.0000
 Hexadecapole moment (field-independent basis, Debye-Ang**3):
 XXXX=             -4.1844 YYYY=             -5.2792 ZZZZ=             -5.2029 XXXY=             -0.0000
 XXXZ=             -0.0000 YYYX=             -0.0000 YYYZ=              0.0000 ZZZX=             -0.0000
 ZZZY=              0.0000 XXYY=             -1.8470 XXZZ=             -1.6025 YYZZ=             -1.4919
 XXYZ=              0.0000 YYXZ=              0.0000 ZZXY=             -0.0000
 N-N= 9.157116030293D+00 E-N=-1.980498358042D+02  KE= 7.544716226440D+01
 Symmetry A1   KE= 6.747174405354D+01
 Symmetry A2   KE= 0.000000000000D+00
 Symmetry B1   KE= 4.650603185678D+00
 Symmetry B2   KE= 3.324815025174D+00
 No NMR shielding tensors so no spin-rotation constants.
 Leave Link  601 at Sun Jan  4 22:24:10 2026, MaxMem=   104857600 cpu:               0.1 elap:               0.1
 (Enter /opt/QChem/g16/l9999.exe)
 Unable to Open any file for archive entry.
 1\1\GINC-NE-07\SP\RHF\3-21G\H2O1\HEICLJ\04-Jan-2026\0\\#p hf/3-21g\\Ti
 tle Card Required\\0,1\O,0,0.10297483,0.41189931,0.\H,0,1.06297483,0.4
 1189931,0.\H,0,-0.21747975,1.31683514,0.\\Version=ES64L-G16RevC.01\Sta
 te=1-A1\HF=-75.58581\RMSD=4.130e-10\Dipole=0.5352717,0.7573919,0.\Quad
 rupole=0.7250546,0.2241802,-0.9492348,-0.7072129,0.,0.\PG=C02V [C2(O1)
 ,SGV(H2)]\\@
 The archive entry for this job was punched.


 CHEMISTRY BEGAN BY SAYING IT WOULD CHANGE THE BASER
 METALS INTO GOLD.  BY NOT DOING THAT IT HAS DONE MUCH
 GREATER THINGS.  --  RALPH WALDO EMERSON
 Job cpu time:       0 days  0 hours  0 minutes  1.2 seconds.
 Elapsed time:       0 days  0 hours  0 minutes  1.1 seconds.
 File lengths (MBytes):  RWF=      6 Int=      0 D2E=      0 Chk=      1 Scr=      1
 Normal termination of Gaussian 16 at Sun Jan  4 22:24:11 2026.
