 Entering Gaussian System, Link 0=g16
 Input=H2O_6-311g.com
 Output=H2O_6-311g.log
 Initial command:
 /opt/QChem/g16/l1.exe "/scratch/heiclj/Gau-1650452.inp" -scrdir="/scratch/heiclj/"
 Entering Link 1 = /opt/QChem/g16/l1.exe PID=   1650464.
  
 Copyright (c) 1988-2019, Gaussian, Inc.  All Rights Reserved.
  
 This is part of the Gaussian(R) 16 program.  It is based on
 the Gaussian(R) 09 system (copyright 2009, Gaussian, Inc.),
 the Gaussian(R) 03 system (copyright 2003, Gaussian, Inc.),
 the Gaussian(R) 98 system (copyright 1998, Gaussian, Inc.),
 the Gaussian(R) 94 system (copyright 1995, Gaussian, Inc.),
 the Gaussian 92(TM) system (copyright 1992, Gaussian, Inc.),
 the Gaussian 90(TM) system (copyright 1990, Gaussian, Inc.),
 the Gaussian 88(TM) system (copyright 1988, Gaussian, Inc.),
 the Gaussian 86(TM) system (copyright 1986, Carnegie Mellon
 University), and the Gaussian 82(TM) system (copyright 1983,
 Carnegie Mellon University). Gaussian is a federally registered
 trademark of Gaussian, Inc.
  
 This software contains proprietary and confidential information,
 including trade secrets, belonging to Gaussian, Inc.
  
 This software is provided under written license and may be
 used, copied, transmitted, or stored only in accord with that
 written license.
  
 The following legend is applicable only to US Government
 contracts under FAR:
  
                    RESTRICTED RIGHTS LEGEND
  
 Use, reproduction and disclosure by the US Government is
 subject to restrictions as set forth in subparagraphs (a)
 and (c) of the Commercial Computer Software - Restricted
 Rights clause in FAR 52.227-19.
  
 Gaussian, Inc.
 340 Quinnipiac St., Bldg. 40, Wallingford CT 06492
  
  
 ---------------------------------------------------------------
 Warning -- This program may not be used in any manner that
 competes with the business of Gaussian, Inc. or will provide
 assistance to any competitor of Gaussian, Inc.  The licensee
 of this program is prohibited from giving any competitor of
 Gaussian, Inc. access to this program.  By using this program,
 the user acknowledges that Gaussian, Inc. is engaged in the
 business of creating and licensing software in the field of
 computational chemistry and represents and warrants to the
 licensee that it is not a competitor of Gaussian, Inc. and that
 it will not use this program in any manner prohibited above.
 ---------------------------------------------------------------
  

 Cite this work as:
 Gaussian 16, Revision C.01,
 M. J. Frisch, G. W. Trucks, H. B. Schlegel, G. E. Scuseria, 
 M. A. Robb, J. R. Cheeseman, G. Scalmani, V. Barone, 
 G. A. Petersson, H. Nakatsuji, X. Li, M. Caricato, A. V. Marenich, 
 J. Bloino, B. G. Janesko, R. Gomperts, B. Mennucci, H. P. Hratchian, 
 J. V. Ortiz, A. F. Izmaylov, J. L. Sonnenberg, D. Williams-Young, 
 F. Ding, F. Lipparini, F. Egidi, J. Goings, B. Peng, A. Petrone, 
 T. Henderson, D. Ranasinghe, V. G. Zakrzewski, J. Gao, N. Rega, 
 G. Zheng, W. Liang, M. Hada, M. Ehara, K. Toyota, R. Fukuda, 
 J. Hasegawa, M. Ishida, T. Nakajima, Y. Honda, O. Kitao, H. Nakai, 
 T. Vreven, K. Throssell, J. A. Montgomery, Jr., J. E. Peralta, 
 F. Ogliaro, M. J. Bearpark, J. J. Heyd, E. N. Brothers, K. N. Kudin, 
 V. N. Staroverov, T. A. Keith, R. Kobayashi, J. Normand, 
 K. Raghavachari, A. P. Rendell, J. C. Burant, S. S. Iyengar, 
 J. Tomasi, M. Cossi, J. M. Millam, M. Klene, C. Adamo, R. Cammi, 
 J. W. Ochterski, R. L. Martin, K. Morokuma, O. Farkas, 
 J. B. Foresman, and D. J. Fox, Gaussian, Inc., Wallingford CT, 2019.
 
 ******************************************
 Gaussian 16:  ES64L-G16RevC.01  3-Jul-2019
                 4-Jan-2026 
 ******************************************
 ------------
 #p hf/6-311g
 ------------
 1/38=1,172=1/1;
 2/12=2,17=6,18=5,40=1/2;
 3/5=4,6=6,11=9,25=1,30=1/1,2,3;
 4//1;
 5/5=2,38=5/2;
 6/7=2,8=2,9=2,10=2,28=1/1;
 99/5=1,9=1/99;
 Leave Link    1 at Sun Jan  4 22:24:07 2026, MaxMem=           0 cpu:               0.0 elap:               0.1
 (Enter /opt/QChem/g16/l101.exe)
 -------------------
 Title Card Required
 -------------------
 Symbolic Z-matrix:
 Charge =  0 Multiplicity = 1
 O                     0.10297   0.4119    0. 
 H                     1.06297   0.4119    0. 
 H                    -0.21748   1.31684   0. 
 
 ITRead=  0  0  0
 MicOpt= -1 -1 -1
 NAtoms=      3 NQM=        3 NQMF=       0 NMMI=      0 NMMIF=      0
                NMic=       0 NMicF=      0.
                    Isotopes and Nuclear Properties:
 (Nuclear quadrupole moments (NQMom) in fm**2, nuclear magnetic moments (NMagM)
  in nuclear magnetons)

  Atom         1           2           3
 IAtWgt=          16           1           1
 AtmWgt=  15.9949146   1.0078250   1.0078250
 NucSpn=           0           1           1
 AtZEff=  -0.0000000  -0.0000000  -0.0000000
 NQMom=    0.0000000   0.0000000   0.0000000
 NMagM=    0.0000000   2.7928460   2.7928460
 AtZNuc=   8.0000000   1.0000000   1.0000000
 Leave Link  101 at Sun Jan  4 22:24:08 2026, MaxMem=   104857600 cpu:               0.2 elap:               0.3
 (Enter /opt/QChem/g16/l202.exe)
                          Input orientation:                          
 ---------------------------------------------------------------------
 Center     Atomic      Atomic             Coordinates (Angstroms)
 Number     Number       Type             X           Y           Z
 ---------------------------------------------------------------------
      1          8           0        0.102975    0.411899    0.000000
      2          1           0        1.062975    0.411899    0.000000
      3          1           0       -0.217480    1.316835    0.000000
 ---------------------------------------------------------------------
                    Distance matrix (angstroms):
                    1          2          3
     1  O    0.000000
     2  H    0.960000   0.000000
     3  H    0.960000   1.567952   0.000000
 Stoichiometry    H2O
 Framework group  C2V[C2(O),SGV(H2)]
 Deg. of freedom     2
 Full point group                 C2V     NOp   4
 Largest Abelian subgroup         C2V     NOp   4
 Largest concise Abelian subgroup C2      NOp   2
                         Standard orientation:                         
 ---------------------------------------------------------------------
 Center     Atomic      Atomic             Coordinates (Angstroms)
 Number     Number       Type             X           Y           Z
 ---------------------------------------------------------------------
      1          8           0        0.000000   -0.000000    0.110812
      2          1           0        0.000000    0.783976   -0.443248
      3          1           0       -0.000000   -0.783976   -0.443248
 ---------------------------------------------------------------------
 Rotational constants (GHZ):         919.6759688         407.9403309         282.5913776
 Leave Link  202 at Sun Jan  4 22:24:08 2026, MaxMem=   104857600 cpu:               0.0 elap:               0.0
 (Enter /opt/QChem/g16/l301.exe)
 Standard basis: 6-311G (5D, 7F)
 Ernie: Thresh=  0.10000D-02 Tol=  0.10000D-05 Strict=F.
 There are    10 symmetry adapted cartesian basis functions of A1  symmetry.
 There are     0 symmetry adapted cartesian basis functions of A2  symmetry.
 There are     3 symmetry adapted cartesian basis functions of B1  symmetry.
 There are     6 symmetry adapted cartesian basis functions of B2  symmetry.
 There are    10 symmetry adapted basis functions of A1  symmetry.
 There are     0 symmetry adapted basis functions of A2  symmetry.
 There are     3 symmetry adapted basis functions of B1  symmetry.
 There are     6 symmetry adapted basis functions of B2  symmetry.
    19 basis functions,    36 primitive gaussians,    19 cartesian basis functions
     5 alpha electrons        5 beta electrons
       nuclear repulsion energy         9.1571160303 Hartrees.
 IExCor=    0 DFT=F Ex=HF Corr=None ExCW=0 ScaHFX=  1.000000
 ScaDFX=  1.000000  1.000000  1.000000  1.000000 ScalE2=  1.000000  1.000000
 IRadAn=      5 IRanWt=     -1 IRanGd=            0 ICorTp=0 IEmpDi=  4
 NAtoms=    3 NActive=    3 NUniq=    2 SFac= 2.25D+00 NAtFMM=   60 NAOKFM=F Big=F
 Integral buffers will be    131072 words long.
 Raffenetti 1 integral format.
 Two-electron integral symmetry is turned on.
 Leave Link  301 at Sun Jan  4 22:24:08 2026, MaxMem=   104857600 cpu:               0.1 elap:               0.1
 (Enter /opt/QChem/g16/l302.exe)
 NPDir=0 NMtPBC=     1 NCelOv=     1 NCel=       1 NClECP=     1 NCelD=      1
         NCelK=      1 NCelE2=     1 NClLst=     1 CellRange=     0.0.
 One-electron integrals computed using PRISM.
 One-electron integral symmetry used in STVInt
 NBasis=    19 RedAO= T EigKep=  4.67D-02  NBF=    10     0     3     6
 NBsUse=    19 1.00D-06 EigRej= -1.00D+00 NBFU=    10     0     3     6
 Leave Link  302 at Sun Jan  4 22:24:09 2026, MaxMem=   104857600 cpu:               0.1 elap:               0.1
 (Enter /opt/QChem/g16/l303.exe)
 DipDrv:  MaxL=1.
 Leave Link  303 at Sun Jan  4 22:24:09 2026, MaxMem=   104857600 cpu:               0.1 elap:               0.1
 (Enter /opt/QChem/g16/l401.exe)
 ExpMin= 1.03D-01 ExpMax= 8.59D+03 ExpMxC= 1.30D+03 IAcc=3 IRadAn=         5 AccDes= 0.00D+00
 Harris functional with IExCor=  205 and IRadAn=       5 diagonalized for initial guess.
 HarFok:  IExCor=  205 AccDes= 0.00D+00 IRadAn=         5 IDoV= 1 UseB2=F ITyADJ=14
 ICtDFT=  3500011 ScaDFX=  1.000000  1.000000  1.000000  1.000000
 FoFCou: FMM=F IPFlag=           0 FMFlag=      100000 FMFlg1=           0
         NFxFlg=           0 DoJE=T BraDBF=F KetDBF=T FulRan=T
         wScrn=  0.000000 ICntrl=       500 IOpCl=  0 I1Cent=   200000004 NGrid=           0
         NMat0=    1 NMatS0=      1 NMatT0=    0 NMatD0=    1 NMtDS0=    0 NMtDT0=    0
 Petite list used in FoFCou.
 Harris En= -76.1206636061961    
 JPrj=0 DoOrth=F DoCkMO=F.
 Initial guess orbital symmetries:
       Occupied  (A1) (A1) (B2) (A1) (B1)
       Virtual   (A1) (B2) (B2) (A1) (B1) (A1) (B2) (A1) (A1) (B2)
                 (B1) (A1) (B2) (A1)
 The electronic state of the initial guess is 1-A1.
 Leave Link  401 at Sun Jan  4 22:24:09 2026, MaxMem=   104857600 cpu:               0.1 elap:               0.2
 (Enter /opt/QChem/g16/l502.exe)
 Keep R1 ints in memory in symmetry-blocked form, NReq=825510.
 FoFCou: FMM=F IPFlag=           0 FMFlag=           0 FMFlg1=           0
         NFxFlg=           0 DoJE=F BraDBF=F KetDBF=F FulRan=T
         wScrn=  0.000000 ICntrl=       600 IOpCl=  0 I1Cent=           0 NGrid=           0
         NMat0=    1 NMatS0=    190 NMatT0=    0 NMatD0=    1 NMtDS0=    0 NMtDT0=    0
 Petite list used in FoFCou.
 Closed shell SCF:
 Using DIIS extrapolation, IDIIS=  1040.
 NGot=   104857600 LenX=   104849151 LenY=   104848269
 Requested convergence on RMS density matrix=1.00D-08 within 128 cycles.
 Requested convergence on MAX density matrix=1.00D-06.
 Requested convergence on             energy=1.00D-06.
 No special actions if energy rises.

 Cycle   1  Pass 1  IDiag  1:
 E= -75.9131316997264    
 DIIS: error= 1.10D-01 at cycle   1 NSaved=   1.
 NSaved= 1 IEnMin= 1 EnMin= -75.9131316997264     IErMin= 1 ErrMin= 1.10D-01
 ErrMax= 1.10D-01  0.00D+00 EMaxC= 1.00D-01 BMatC= 2.14D-01 BMatP= 2.14D-01
 IDIUse=3 WtCom= 0.00D+00 WtEn= 1.00D+00
 Coeff-Com:  0.100D+01
 Coeff-En:   0.100D+01
 Coeff:      0.100D+01
 Gap=     0.511 Goal=   None    Shift=    0.000
 GapD=    0.511 DampG=2.000 DampE=0.250 DampFc=0.5000 IDamp=-1.
 Damping current iteration by 5.00D-01
 RMSDP=1.37D-02 MaxDP=9.72D-02              OVMax= 1.36D-01

 Cycle   2  Pass 1  IDiag  1:
 E= -75.9663279396809     Delta-E=       -0.053196239955 Rises=F Damp=T
 DIIS: error= 2.96D-02 at cycle   2 NSaved=   2.
 NSaved= 2 IEnMin= 2 EnMin= -75.9663279396809     IErMin= 2 ErrMin= 2.96D-02
 ErrMax= 2.96D-02  0.00D+00 EMaxC= 1.00D-01 BMatC= 2.71D-02 BMatP= 2.14D-01
 IDIUse=3 WtCom= 7.04D-01 WtEn= 2.96D-01
 Coeff-Com: -0.362D+00 0.136D+01
 Coeff-En:   0.000D+00 0.100D+01
 Coeff:     -0.255D+00 0.125D+01
 Gap=     0.638 Goal=   None    Shift=    0.000
 RMSDP=2.42D-03 MaxDP=9.32D-03 DE=-5.32D-02 OVMax= 4.45D-02

 Cycle   3  Pass 1  IDiag  1:
 E= -76.0102872103715     Delta-E=       -0.043959270691 Rises=F Damp=F
 DIIS: error= 3.41D-03 at cycle   3 NSaved=   3.
 NSaved= 3 IEnMin= 3 EnMin= -76.0102872103715     IErMin= 3 ErrMin= 3.41D-03
 ErrMax= 3.41D-03  0.00D+00 EMaxC= 1.00D-01 BMatC= 1.16D-04 BMatP= 2.71D-02
 IDIUse=3 WtCom= 9.66D-01 WtEn= 3.41D-02
 Coeff-Com:  0.116D-02-0.442D-01 0.104D+01
 Coeff-En:   0.000D+00 0.000D+00 0.100D+01
 Coeff:      0.112D-02-0.427D-01 0.104D+01
 Gap=     0.642 Goal=   None    Shift=    0.000
 RMSDP=5.28D-04 MaxDP=3.90D-03 DE=-4.40D-02 OVMax= 4.72D-03

 Cycle   4  Pass 1  IDiag  1:
 E= -76.0104399205809     Delta-E=       -0.000152710209 Rises=F Damp=F
 DIIS: error= 8.29D-04 at cycle   4 NSaved=   4.
 NSaved= 4 IEnMin= 4 EnMin= -76.0104399205809     IErMin= 4 ErrMin= 8.29D-04
 ErrMax= 8.29D-04  0.00D+00 EMaxC= 1.00D-01 BMatC= 8.59D-06 BMatP= 1.16D-04
 IDIUse=3 WtCom= 9.92D-01 WtEn= 8.29D-03
 Coeff-Com:  0.517D-02 0.306D-02-0.433D+00 0.142D+01
 Coeff-En:   0.000D+00 0.000D+00 0.000D+00 0.100D+01
 Coeff:      0.513D-02 0.304D-02-0.429D+00 0.142D+01
 Gap=     0.644 Goal=   None    Shift=    0.000
 RMSDP=2.28D-04 MaxDP=1.70D-03 DE=-1.53D-04 OVMax= 2.05D-03

 Cycle   5  Pass 1  IDiag  1:
 E= -76.0104575172499     Delta-E=       -0.000017596669 Rises=F Damp=F
 DIIS: error= 1.52D-04 at cycle   5 NSaved=   5.
 NSaved= 5 IEnMin= 5 EnMin= -76.0104575172499     IErMin= 5 ErrMin= 1.52D-04
 ErrMax= 1.52D-04  0.00D+00 EMaxC= 1.00D-01 BMatC= 1.58D-07 BMatP= 8.59D-06
 IDIUse=3 WtCom= 9.98D-01 WtEn= 1.52D-03
 Coeff-Com: -0.976D-03-0.125D-02 0.112D+00-0.449D+00 0.134D+01
 Coeff-En:   0.000D+00 0.000D+00 0.000D+00 0.000D+00 0.100D+01
 Coeff:     -0.975D-03-0.125D-02 0.112D+00-0.449D+00 0.134D+01
 Gap=     0.644 Goal=   None    Shift=    0.000
 RMSDP=4.04D-05 MaxDP=2.82D-04 DE=-1.76D-05 OVMax= 4.23D-04

 Cycle   6  Pass 1  IDiag  1:
 E= -76.0104579372704     Delta-E=       -0.000000420021 Rises=F Damp=F
 DIIS: error= 1.59D-05 at cycle   6 NSaved=   6.
 NSaved= 6 IEnMin= 6 EnMin= -76.0104579372704     IErMin= 6 ErrMin= 1.59D-05
 ErrMax= 1.59D-05  0.00D+00 EMaxC= 1.00D-01 BMatC= 4.22D-09 BMatP= 1.58D-07
 IDIUse=1 WtCom= 1.00D+00 WtEn= 0.00D+00
 Coeff-Com:  0.115D-03 0.353D-03-0.215D-01 0.937D-01-0.395D+00 0.132D+01
 Coeff:      0.115D-03 0.353D-03-0.215D-01 0.937D-01-0.395D+00 0.132D+01
 Gap=     0.644 Goal=   None    Shift=    0.000
 RMSDP=6.71D-06 MaxDP=3.79D-05 DE=-4.20D-07 OVMax= 8.55D-05

 Cycle   7  Pass 1  IDiag  1:
 E= -76.0104579499984     Delta-E=       -0.000000012728 Rises=F Damp=F
 DIIS: error= 4.49D-06 at cycle   7 NSaved=   7.
 NSaved= 7 IEnMin= 7 EnMin= -76.0104579499984     IErMin= 7 ErrMin= 4.49D-06
 ErrMax= 4.49D-06  0.00D+00 EMaxC= 1.00D-01 BMatC= 2.40D-10 BMatP= 4.22D-09
 IDIUse=1 WtCom= 1.00D+00 WtEn= 0.00D+00
 Coeff-Com: -0.927D-05-0.151D-03 0.635D-02-0.295D-01 0.153D+00-0.687D+00
 Coeff-Com:  0.156D+01
 Coeff:     -0.927D-05-0.151D-03 0.635D-02-0.295D-01 0.153D+00-0.687D+00
 Coeff:      0.156D+01
 Gap=     0.644 Goal=   None    Shift=    0.000
 RMSDP=1.44D-06 MaxDP=7.50D-06 DE=-1.27D-08 OVMax= 2.00D-05

 Cycle   8  Pass 1  IDiag  1:
 E= -76.0104579507008     Delta-E=       -0.000000000702 Rises=F Damp=F
 DIIS: error= 5.20D-07 at cycle   8 NSaved=   8.
 NSaved= 8 IEnMin= 8 EnMin= -76.0104579507008     IErMin= 8 ErrMin= 5.20D-07
 ErrMax= 5.20D-07  0.00D+00 EMaxC= 1.00D-01 BMatC= 2.94D-12 BMatP= 2.40D-10
 IDIUse=1 WtCom= 1.00D+00 WtEn= 0.00D+00
 Coeff-Com:  0.459D-05 0.143D-04-0.828D-03 0.386D-02-0.211D-01 0.101D+00
 Coeff-Com: -0.281D+00 0.120D+01
 Coeff:      0.459D-05 0.143D-04-0.828D-03 0.386D-02-0.211D-01 0.101D+00
 Coeff:     -0.281D+00 0.120D+01
 Gap=     0.644 Goal=   None    Shift=    0.000
 RMSDP=1.59D-07 MaxDP=7.73D-07 DE=-7.02D-10 OVMax= 1.57D-06

 Cycle   9  Pass 1  IDiag  1:
 E= -76.0104579507063     Delta-E=       -0.000000000006 Rises=F Damp=F
 DIIS: error= 7.92D-08 at cycle   9 NSaved=   9.
 NSaved= 9 IEnMin= 9 EnMin= -76.0104579507063     IErMin= 9 ErrMin= 7.92D-08
 ErrMax= 7.92D-08  0.00D+00 EMaxC= 1.00D-01 BMatC= 7.29D-14 BMatP= 2.94D-12
 IDIUse=1 WtCom= 1.00D+00 WtEn= 0.00D+00
 Coeff-Com: -0.996D-06 0.826D-06 0.198D-04-0.998D-04 0.843D-03-0.531D-02
 Coeff-Com:  0.232D-01-0.295D+00 0.128D+01
 Coeff:     -0.996D-06 0.826D-06 0.198D-04-0.998D-04 0.843D-03-0.531D-02
 Coeff:      0.232D-01-0.295D+00 0.128D+01
 Gap=     0.644 Goal=   None    Shift=    0.000
 RMSDP=3.58D-08 MaxDP=2.10D-07 DE=-5.57D-12 OVMax= 3.19D-07

 Cycle  10  Pass 1  IDiag  1:
 E= -76.0104579507066     Delta-E=       -0.000000000000 Rises=F Damp=F
 DIIS: error= 5.35D-09 at cycle  10 NSaved=  10.
 NSaved=10 IEnMin=10 EnMin= -76.0104579507066     IErMin=10 ErrMin= 5.35D-09
 ErrMax= 5.35D-09  0.00D+00 EMaxC= 1.00D-01 BMatC= 7.21D-16 BMatP= 7.29D-14
 IDIUse=1 WtCom= 1.00D+00 WtEn= 0.00D+00
 Coeff-Com:  0.164D-06-0.359D-06 0.451D-05-0.223D-04 0.838D-04-0.293D-03
 Coeff-Com: -0.491D-03 0.283D-01-0.190D+00 0.116D+01
 Coeff:      0.164D-06-0.359D-06 0.451D-05-0.223D-04 0.838D-04-0.293D-03
 Coeff:     -0.491D-03 0.283D-01-0.190D+00 0.116D+01
 Gap=     0.644 Goal=   None    Shift=    0.000
 RMSDP=2.60D-09 MaxDP=1.38D-08 DE=-2.56D-13 OVMax= 3.48D-08

 SCF Done:  E(RHF) =  -76.0104579507     A.U. after   10 cycles
            NFock= 10  Conv=0.26D-08     -V/T= 1.9993
 KE= 7.606603286020D+01 PE=-1.990487944720D+02 EE= 3.781518763081D+01
 Leave Link  502 at Sun Jan  4 22:24:10 2026, MaxMem=   104857600 cpu:               0.1 elap:               0.1
 (Enter /opt/QChem/g16/l601.exe)
 Copying SCF densities to generalized density rwf, IOpCl= 0 IROHF=0.

 **********************************************************************

            Population analysis using the SCF Density.

 **********************************************************************

 Orbital symmetries:
       Occupied  (A1) (A1) (B2) (A1) (B1)
       Virtual   (A1) (B2) (B2) (A1) (B1) (A1) (B2) (A1) (A1) (B2)
                 (B1) (A1) (B2) (A1)
 The electronic state is 1-A1.
 Alpha  occ. eigenvalues --  -20.54979  -1.35183  -0.71884  -0.55413  -0.50159
 Alpha virt. eigenvalues --    0.14243   0.21263   0.56880   0.58139   1.00168
 Alpha virt. eigenvalues --    1.02351   1.15293   1.43185   2.45194   2.51346
 Alpha virt. eigenvalues --    5.30818   5.41039   5.55896  51.43185
          Condensed to atoms (all electrons):
               1          2          3
     1  O    8.292095   0.257885   0.257885
     2  H    0.257885   0.372659  -0.034476
     3  H    0.257885  -0.034476   0.372659
 Mulliken charges:
               1
     1  O   -0.807864
     2  H    0.403932
     3  H    0.403932
 Sum of Mulliken charges =  -0.00000
 Mulliken charges with hydrogens summed into heavy atoms:
               1
     1  O   -0.000000
 Electronic spatial extent (au):  <R**2>=             19.2030
 Charge=             -0.0000 electrons
 Dipole moment (field-independent basis, Debye):
    X=             -0.0000    Y=              0.0000    Z=             -2.5359  Tot=              2.5359
 Quadrupole moment (field-independent basis, Debye-Ang):
   XX=             -7.3037   YY=             -3.9462   ZZ=             -6.3154
   XY=              0.0000   XZ=              0.0000   YZ=             -0.0000
 Traceless Quadrupole moment (field-independent basis, Debye-Ang):
   XX=             -1.4486   YY=              1.9089   ZZ=             -0.4603
   XY=              0.0000   XZ=              0.0000   YZ=             -0.0000
 Octapole moment (field-independent basis, Debye-Ang**2):
  XXX=              0.0000  YYY=              0.0000  ZZZ=             -1.5079  XYY=             -0.0000
  XXY=              0.0000  XXZ=             -0.4283  XZZ=             -0.0000  YZZ=              0.0000
  YYZ=             -1.3330  XYZ=             -0.0000
 Hexadecapole moment (field-independent basis, Debye-Ang**3):
 XXXX=             -5.4111 YYYY=             -5.5069 ZZZZ=             -6.2968 XXXY=             -0.0000
 XXXZ=             -0.0000 YYYX=              0.0000 YYYZ=             -0.0000 ZZZX=             -0.0000
 ZZZY=              0.0000 XXYY=             -2.0974 XXZZ=             -1.9900 YYZZ=             -1.7122
 XXYZ=              0.0000 YYXZ=              0.0000 ZZXY=              0.0000
 N-N= 9.157116030293D+00 E-N=-1.990487945259D+02  KE= 7.606603286020D+01
 Symmetry A1   KE= 6.800950666443D+01
 Symmetry A2   KE= 0.000000000000D+00
 Symmetry B1   KE= 4.594019797662D+00
 Symmetry B2   KE= 3.462506398116D+00
 No NMR shielding tensors so no spin-rotation constants.
 Leave Link  601 at Sun Jan  4 22:24:10 2026, MaxMem=   104857600 cpu:               0.1 elap:               0.1
 (Enter /opt/QChem/g16/l9999.exe)
 Unable to Open any file for archive entry.
 1\1\GINC-NE-07\SP\RHF\6-311G\H2O1\HEICLJ\04-Jan-2026\0\\#p hf/6-311g\\
 Title Card Required\\0,1\O,0,0.10297483,0.41189931,0.\H,0,1.06297483,0
 .41189931,0.\H,0,-0.21747975,1.31683514,0.\\Version=ES64L-G16RevC.01\S
 tate=1-A1\HF=-76.010458\RMSD=2.597e-09\Dipole=0.5758126,0.814756,0.\Qu
 adrupole=0.8324963,0.2445125,-1.0770089,-0.8302075,0.,0.\PG=C02V [C2(O
 1),SGV(H2)]\\@
 The archive entry for this job was punched.


 CHEMISTRY BEGAN BY SAYING IT WOULD CHANGE THE BASER
 METALS INTO GOLD.  BY NOT DOING THAT IT HAS DONE MUCH
 GREATER THINGS.  --  RALPH WALDO EMERSON
 Job cpu time:       0 days  0 hours  0 minutes  1.3 seconds.
 Elapsed time:       0 days  0 hours  0 minutes  1.1 seconds.
 File lengths (MBytes):  RWF=      6 Int=      0 D2E=      0 Chk=      1 Scr=      1
 Normal termination of Gaussian 16 at Sun Jan  4 22:24:11 2026.
