 Entering Gaussian System, Link 0=g16
 Input=NH3_6-311g.com
 Output=NH3_6-311g.log
 Initial command:
 /opt/QChem/g16/l1.exe "/scratch/heiclj/Gau-1650535.inp" -scrdir="/scratch/heiclj/"
 Entering Link 1 = /opt/QChem/g16/l1.exe PID=   1650538.
  
 Copyright (c) 1988-2019, Gaussian, Inc.  All Rights Reserved.
  
 This is part of the Gaussian(R) 16 program.  It is based on
 the Gaussian(R) 09 system (copyright 2009, Gaussian, Inc.),
 the Gaussian(R) 03 system (copyright 2003, Gaussian, Inc.),
 the Gaussian(R) 98 system (copyright 1998, Gaussian, Inc.),
 the Gaussian(R) 94 system (copyright 1995, Gaussian, Inc.),
 the Gaussian 92(TM) system (copyright 1992, Gaussian, Inc.),
 the Gaussian 90(TM) system (copyright 1990, Gaussian, Inc.),
 the Gaussian 88(TM) system (copyright 1988, Gaussian, Inc.),
 the Gaussian 86(TM) system (copyright 1986, Carnegie Mellon
 University), and the Gaussian 82(TM) system (copyright 1983,
 Carnegie Mellon University). Gaussian is a federally registered
 trademark of Gaussian, Inc.
  
 This software contains proprietary and confidential information,
 including trade secrets, belonging to Gaussian, Inc.
  
 This software is provided under written license and may be
 used, copied, transmitted, or stored only in accord with that
 written license.
  
 The following legend is applicable only to US Government
 contracts under FAR:
  
                    RESTRICTED RIGHTS LEGEND
  
 Use, reproduction and disclosure by the US Government is
 subject to restrictions as set forth in subparagraphs (a)
 and (c) of the Commercial Computer Software - Restricted
 Rights clause in FAR 52.227-19.
  
 Gaussian, Inc.
 340 Quinnipiac St., Bldg. 40, Wallingford CT 06492
  
  
 ---------------------------------------------------------------
 Warning -- This program may not be used in any manner that
 competes with the business of Gaussian, Inc. or will provide
 assistance to any competitor of Gaussian, Inc.  The licensee
 of this program is prohibited from giving any competitor of
 Gaussian, Inc. access to this program.  By using this program,
 the user acknowledges that Gaussian, Inc. is engaged in the
 business of creating and licensing software in the field of
 computational chemistry and represents and warrants to the
 licensee that it is not a competitor of Gaussian, Inc. and that
 it will not use this program in any manner prohibited above.
 ---------------------------------------------------------------
  

 Cite this work as:
 Gaussian 16, Revision C.01,
 M. J. Frisch, G. W. Trucks, H. B. Schlegel, G. E. Scuseria, 
 M. A. Robb, J. R. Cheeseman, G. Scalmani, V. Barone, 
 G. A. Petersson, H. Nakatsuji, X. Li, M. Caricato, A. V. Marenich, 
 J. Bloino, B. G. Janesko, R. Gomperts, B. Mennucci, H. P. Hratchian, 
 J. V. Ortiz, A. F. Izmaylov, J. L. Sonnenberg, D. Williams-Young, 
 F. Ding, F. Lipparini, F. Egidi, J. Goings, B. Peng, A. Petrone, 
 T. Henderson, D. Ranasinghe, V. G. Zakrzewski, J. Gao, N. Rega, 
 G. Zheng, W. Liang, M. Hada, M. Ehara, K. Toyota, R. Fukuda, 
 J. Hasegawa, M. Ishida, T. Nakajima, Y. Honda, O. Kitao, H. Nakai, 
 T. Vreven, K. Throssell, J. A. Montgomery, Jr., J. E. Peralta, 
 F. Ogliaro, M. J. Bearpark, J. J. Heyd, E. N. Brothers, K. N. Kudin, 
 V. N. Staroverov, T. A. Keith, R. Kobayashi, J. Normand, 
 K. Raghavachari, A. P. Rendell, J. C. Burant, S. S. Iyengar, 
 J. Tomasi, M. Cossi, J. M. Millam, M. Klene, C. Adamo, R. Cammi, 
 J. W. Ochterski, R. L. Martin, K. Morokuma, O. Farkas, 
 J. B. Foresman, and D. J. Fox, Gaussian, Inc., Wallingford CT, 2019.
 
 ******************************************
 Gaussian 16:  ES64L-G16RevC.01  3-Jul-2019
                 4-Jan-2026 
 ******************************************
 ------------
 #p hf/6-311g
 ------------
 1/38=1,172=1/1;
 2/12=2,17=6,18=5,40=1/2;
 3/5=4,6=6,11=9,25=1,30=1/1,2,3;
 4//1;
 5/5=2,38=5/2;
 6/7=2,8=2,9=2,10=2,28=1/1;
 99/5=1,9=1/99;
 Leave Link    1 at Sun Jan  4 22:24:10 2026, MaxMem=           0 cpu:               0.0 elap:               0.1
 (Enter /opt/QChem/g16/l101.exe)
 -------------------
 Title Card Required
 -------------------
 Symbolic Z-matrix:
 Charge =  0 Multiplicity = 1
 N                    -0.16029   0.23988   0.01257 
 H                     0.17304  -0.70294   0.01257 
 H                     0.17305   0.71128   0.82907 
 H                     0.17305   0.71128  -0.80393 
 
 ITRead=  0  0  0  0
 MicOpt= -1 -1 -1 -1
 NAtoms=      4 NQM=        4 NQMF=       0 NMMI=      0 NMMIF=      0
                NMic=       0 NMicF=      0.
                    Isotopes and Nuclear Properties:
 (Nuclear quadrupole moments (NQMom) in fm**2, nuclear magnetic moments (NMagM)
  in nuclear magnetons)

  Atom         1           2           3           4
 IAtWgt=          14           1           1           1
 AtmWgt=  14.0030740   1.0078250   1.0078250   1.0078250
 NucSpn=           2           1           1           1
 AtZEff=  -0.0000000  -0.0000000  -0.0000000  -0.0000000
 NQMom=    2.0440000   0.0000000   0.0000000   0.0000000
 NMagM=    0.4037610   2.7928460   2.7928460   2.7928460
 AtZNuc=   7.0000000   1.0000000   1.0000000   1.0000000
 Leave Link  101 at Sun Jan  4 22:24:11 2026, MaxMem=   104857600 cpu:               0.3 elap:               0.3
 (Enter /opt/QChem/g16/l202.exe)
                          Input orientation:                          
 ---------------------------------------------------------------------
 Center     Atomic      Atomic             Coordinates (Angstroms)
 Number     Number       Type             X           Y           Z
 ---------------------------------------------------------------------
      1          7           0       -0.160286    0.239877    0.012571
      2          1           0        0.173036   -0.702936    0.012571
      3          1           0        0.173053    0.711277    0.829068
      4          1           0        0.173053    0.711277   -0.803926
 ---------------------------------------------------------------------
                    Distance matrix (angstroms):
                    1          2          3          4
     1  N    0.000000
     2  H    1.000000   0.000000
     3  H    1.000000   1.632993   0.000000
     4  H    1.000000   1.632993   1.632993   0.000000
 Stoichiometry    H3N
 Framework group  C3V[C3(N),3SGV(H)]
 Deg. of freedom     2
 Full point group                 C3V     NOp   6
 Largest Abelian subgroup         CS      NOp   2
 Largest concise Abelian subgroup CS      NOp   2
                         Standard orientation:                         
 ---------------------------------------------------------------------
 Center     Atomic      Atomic             Coordinates (Angstroms)
 Number     Number       Type             X           Y           Z
 ---------------------------------------------------------------------
      1          7           0       -0.000000    0.000000    0.100000
      2          1           0        0.000000    0.942809   -0.233333
      3          1           0       -0.816497   -0.471405   -0.233333
      4          1           0        0.816497   -0.471405   -0.233333
 ---------------------------------------------------------------------
 Rotational constants (GHZ):         311.9520310         311.9520310         188.0456786
 Leave Link  202 at Sun Jan  4 22:24:11 2026, MaxMem=   104857600 cpu:               0.0 elap:               0.0
 (Enter /opt/QChem/g16/l301.exe)
 Standard basis: 6-311G (5D, 7F)
 Ernie: Thresh=  0.10000D-02 Tol=  0.10000D-05 Strict=F.
 There are    16 symmetry adapted cartesian basis functions of A'  symmetry.
 There are     6 symmetry adapted cartesian basis functions of A"  symmetry.
 There are    16 symmetry adapted basis functions of A'  symmetry.
 There are     6 symmetry adapted basis functions of A"  symmetry.
    22 basis functions,    41 primitive gaussians,    22 cartesian basis functions
     5 alpha electrons        5 beta electrons
       nuclear repulsion energy        12.0848827635 Hartrees.
 IExCor=    0 DFT=F Ex=HF Corr=None ExCW=0 ScaHFX=  1.000000
 ScaDFX=  1.000000  1.000000  1.000000  1.000000 ScalE2=  1.000000  1.000000
 IRadAn=      5 IRanWt=     -1 IRanGd=            0 ICorTp=0 IEmpDi=  4
 NAtoms=    4 NActive=    4 NUniq=    2 SFac= 4.00D+00 NAtFMM=   60 NAOKFM=F Big=F
 Integral buffers will be    131072 words long.
 Raffenetti 1 integral format.
 Two-electron integral symmetry is turned on.
 Leave Link  301 at Sun Jan  4 22:24:11 2026, MaxMem=   104857600 cpu:               0.1 elap:               0.1
 (Enter /opt/QChem/g16/l302.exe)
 NPDir=0 NMtPBC=     1 NCelOv=     1 NCel=       1 NClECP=     1 NCelD=      1
         NCelK=      1 NCelE2=     1 NClLst=     1 CellRange=     0.0.
 One-electron integrals computed using PRISM.
 One-electron integral symmetry used in STVInt
 NBasis=    22 RedAO= T EigKep=  3.19D-02  NBF=    16     6
 NBsUse=    22 1.00D-06 EigRej= -1.00D+00 NBFU=    16     6
 Leave Link  302 at Sun Jan  4 22:24:12 2026, MaxMem=   104857600 cpu:               0.1 elap:               0.1
 (Enter /opt/QChem/g16/l303.exe)
 DipDrv:  MaxL=1.
 Leave Link  303 at Sun Jan  4 22:24:12 2026, MaxMem=   104857600 cpu:               0.0 elap:               0.1
 (Enter /opt/QChem/g16/l401.exe)
 ExpMin= 1.03D-01 ExpMax= 6.29D+03 ExpMxC= 9.49D+02 IAcc=3 IRadAn=         5 AccDes= 0.00D+00
 Harris functional with IExCor=  205 and IRadAn=       5 diagonalized for initial guess.
 HarFok:  IExCor=  205 AccDes= 0.00D+00 IRadAn=         5 IDoV= 1 UseB2=F ITyADJ=14
 ICtDFT=  3500011 ScaDFX=  1.000000  1.000000  1.000000  1.000000
 FoFCou: FMM=F IPFlag=           0 FMFlag=      100000 FMFlg1=           0
         NFxFlg=           0 DoJE=T BraDBF=F KetDBF=T FulRan=T
         wScrn=  0.000000 ICntrl=       500 IOpCl=  0 I1Cent=   200000004 NGrid=           0
         NMat0=    1 NMatS0=      1 NMatT0=    0 NMatD0=    1 NMtDS0=    0 NMtDT0=    0
 Petite list used in FoFCou.
 Harris En= -56.3267372336989    
 JPrj=0 DoOrth=F DoCkMO=F.
 Initial guess orbital symmetries:
       Occupied  (A1) (A1) (E) (E) (A1)
       Virtual   (A1) (E) (E) (E) (E) (A1) (A1) (E) (E) (A1) (A1)
                 (E) (E) (A1) (E) (E) (A1)
 The electronic state of the initial guess is 1-A1.
 Leave Link  401 at Sun Jan  4 22:24:12 2026, MaxMem=   104857600 cpu:               0.2 elap:               0.2
 (Enter /opt/QChem/g16/l502.exe)
 Keep R1 ints in memory in symmetry-blocked form, NReq=841490.
 FoFCou: FMM=F IPFlag=           0 FMFlag=           0 FMFlg1=           0
         NFxFlg=           0 DoJE=F BraDBF=F KetDBF=F FulRan=T
         wScrn=  0.000000 ICntrl=       600 IOpCl=  0 I1Cent=           0 NGrid=           0
         NMat0=    1 NMatS0=    253 NMatT0=    0 NMatD0=    1 NMtDS0=    0 NMtDT0=    0
 Petite list used in FoFCou.
 Closed shell SCF:
 Using DIIS extrapolation, IDIIS=  1040.
 NGot=   104857600 LenX=   104838031 LenY=   104837106
 Requested convergence on RMS density matrix=1.00D-08 within 128 cycles.
 Requested convergence on MAX density matrix=1.00D-06.
 Requested convergence on             energy=1.00D-06.
 No special actions if energy rises.

 Cycle   1  Pass 1  IDiag  1:
 E= -56.0616543439016    
 DIIS: error= 1.04D-01 at cycle   1 NSaved=   1.
 NSaved= 1 IEnMin= 1 EnMin= -56.0616543439016     IErMin= 1 ErrMin= 1.04D-01
 ErrMax= 1.04D-01  0.00D+00 EMaxC= 1.00D-01 BMatC= 2.12D-01 BMatP= 2.12D-01
 IDIUse=3 WtCom= 0.00D+00 WtEn= 1.00D+00
 Coeff-Com:  0.100D+01
 Coeff-En:   0.100D+01
 Coeff:      0.100D+01
 Gap=     0.443 Goal=   None    Shift=    0.000
 GapD=    0.443 DampG=2.000 DampE=0.250 DampFc=0.5000 IDamp=-1.
 Damping current iteration by 5.00D-01
 RMSDP=1.30D-02 MaxDP=1.36D-01              OVMax= 1.38D-01

 Cycle   2  Pass 1  IDiag  1:
 E= -56.1271615720631     Delta-E=       -0.065507228162 Rises=F Damp=T
 DIIS: error= 3.56D-02 at cycle   2 NSaved=   2.
 NSaved= 2 IEnMin= 2 EnMin= -56.1271615720631     IErMin= 2 ErrMin= 3.56D-02
 ErrMax= 3.56D-02  0.00D+00 EMaxC= 1.00D-01 BMatC= 2.77D-02 BMatP= 2.12D-01
 IDIUse=3 WtCom= 6.44D-01 WtEn= 3.56D-01
 Coeff-Com: -0.405D+00 0.141D+01
 Coeff-En:   0.000D+00 0.100D+01
 Coeff:     -0.261D+00 0.126D+01
 Gap=     0.558 Goal=   None    Shift=    0.000
 RMSDP=2.52D-03 MaxDP=1.07D-02 DE=-6.55D-02 OVMax= 4.96D-02

 Cycle   3  Pass 1  IDiag  1:
 E= -56.1796955149988     Delta-E=       -0.052533942936 Rises=F Damp=F
 DIIS: error= 2.77D-03 at cycle   3 NSaved=   3.
 NSaved= 3 IEnMin= 3 EnMin= -56.1796955149988     IErMin= 3 ErrMin= 2.77D-03
 ErrMax= 2.77D-03  0.00D+00 EMaxC= 1.00D-01 BMatC= 1.16D-04 BMatP= 2.77D-02
 IDIUse=3 WtCom= 9.72D-01 WtEn= 2.77D-02
 Coeff-Com:  0.442D-01-0.129D+00 0.109D+01
 Coeff-En:   0.000D+00 0.000D+00 0.100D+01
 Coeff:      0.430D-01-0.126D+00 0.108D+01
 Gap=     0.565 Goal=   None    Shift=    0.000
 RMSDP=5.29D-04 MaxDP=5.05D-03 DE=-5.25D-02 OVMax= 3.89D-03

 Cycle   4  Pass 1  IDiag  1:
 E= -56.1798109039699     Delta-E=       -0.000115388971 Rises=F Damp=F
 DIIS: error= 4.09D-04 at cycle   4 NSaved=   4.
 NSaved= 4 IEnMin= 4 EnMin= -56.1798109039699     IErMin= 4 ErrMin= 4.09D-04
 ErrMax= 4.09D-04  0.00D+00 EMaxC= 1.00D-01 BMatC= 3.91D-06 BMatP= 1.16D-04
 IDIUse=3 WtCom= 9.96D-01 WtEn= 4.09D-03
 Coeff-Com: -0.156D-01 0.439D-01-0.401D+00 0.137D+01
 Coeff-En:   0.000D+00 0.000D+00 0.000D+00 0.100D+01
 Coeff:     -0.155D-01 0.437D-01-0.400D+00 0.137D+01
 Gap=     0.565 Goal=   None    Shift=    0.000
 RMSDP=1.95D-04 MaxDP=1.73D-03 DE=-1.15D-04 OVMax= 1.54D-03

 Cycle   5  Pass 1  IDiag  1:
 E= -56.1798203614553     Delta-E=       -0.000009457485 Rises=F Damp=F
 DIIS: error= 8.09D-05 at cycle   5 NSaved=   5.
 NSaved= 5 IEnMin= 5 EnMin= -56.1798203614553     IErMin= 5 ErrMin= 8.09D-05
 ErrMax= 8.09D-05  0.00D+00 EMaxC= 1.00D-01 BMatC= 1.07D-07 BMatP= 3.91D-06
 IDIUse=1 WtCom= 1.00D+00 WtEn= 0.00D+00
 Coeff-Com:  0.357D-02-0.929D-02 0.703D-01-0.349D+00 0.128D+01
 Coeff:      0.357D-02-0.929D-02 0.703D-01-0.349D+00 0.128D+01
 Gap=     0.566 Goal=   None    Shift=    0.000
 RMSDP=4.40D-05 MaxDP=4.49D-04 DE=-9.46D-06 OVMax= 4.05D-04

 Cycle   6  Pass 1  IDiag  1:
 E= -56.1798206348852     Delta-E=       -0.000000273430 Rises=F Damp=F
 DIIS: error= 9.90D-06 at cycle   6 NSaved=   6.
 NSaved= 6 IEnMin= 6 EnMin= -56.1798206348852     IErMin= 6 ErrMin= 9.90D-06
 ErrMax= 9.90D-06  0.00D+00 EMaxC= 1.00D-01 BMatC= 1.94D-09 BMatP= 1.07D-07
 IDIUse=1 WtCom= 1.00D+00 WtEn= 0.00D+00
 Coeff-Com: -0.716D-03 0.175D-02-0.994D-02 0.629D-01-0.336D+00 0.128D+01
 Coeff:     -0.716D-03 0.175D-02-0.994D-02 0.629D-01-0.336D+00 0.128D+01
 Gap=     0.566 Goal=   None    Shift=    0.000
 RMSDP=6.27D-06 MaxDP=4.37D-05 DE=-2.73D-07 OVMax= 7.11D-05

 Cycle   7  Pass 1  IDiag  1:
 E= -56.1798206411622     Delta-E=       -0.000000006277 Rises=F Damp=F
 DIIS: error= 2.14D-06 at cycle   7 NSaved=   7.
 NSaved= 7 IEnMin= 7 EnMin= -56.1798206411622     IErMin= 7 ErrMin= 2.14D-06
 ErrMax= 2.14D-06  0.00D+00 EMaxC= 1.00D-01 BMatC= 8.97D-11 BMatP= 1.94D-09
 IDIUse=1 WtCom= 1.00D+00 WtEn= 0.00D+00
 Coeff-Com:  0.293D-03-0.707D-03 0.335D-02-0.240D-01 0.143D+00-0.640D+00
 Coeff-Com:  0.152D+01
 Coeff:      0.293D-03-0.707D-03 0.335D-02-0.240D-01 0.143D+00-0.640D+00
 Coeff:      0.152D+01
 Gap=     0.566 Goal=   None    Shift=    0.000
 RMSDP=1.33D-06 MaxDP=6.64D-06 DE=-6.28D-09 OVMax= 2.09D-05

 Cycle   8  Pass 1  IDiag  1:
 E= -56.1798206415871     Delta-E=       -0.000000000425 Rises=F Damp=F
 DIIS: error= 6.20D-07 at cycle   8 NSaved=   8.
 NSaved= 8 IEnMin= 8 EnMin= -56.1798206415871     IErMin= 8 ErrMin= 6.20D-07
 ErrMax= 6.20D-07  0.00D+00 EMaxC= 1.00D-01 BMatC= 4.55D-12 BMatP= 8.97D-11
 IDIUse=1 WtCom= 1.00D+00 WtEn= 0.00D+00
 Coeff-Com: -0.115D-04 0.277D-04 0.581D-04 0.507D-03-0.651D-02 0.542D-01
 Coeff-Com: -0.354D+00 0.131D+01
 Coeff:     -0.115D-04 0.277D-04 0.581D-04 0.507D-03-0.651D-02 0.542D-01
 Coeff:     -0.354D+00 0.131D+01
 Gap=     0.566 Goal=   None    Shift=    0.000
 RMSDP=3.24D-07 MaxDP=2.19D-06 DE=-4.25D-10 OVMax= 4.61D-06

 Cycle   9  Pass 1  IDiag  1:
 E= -56.1798206416058     Delta-E=       -0.000000000019 Rises=F Damp=F
 DIIS: error= 9.15D-08 at cycle   9 NSaved=   9.
 NSaved= 9 IEnMin= 9 EnMin= -56.1798206416058     IErMin= 9 ErrMin= 9.15D-08
 ErrMax= 9.15D-08  0.00D+00 EMaxC= 1.00D-01 BMatC= 1.31D-13 BMatP= 4.55D-12
 IDIUse=1 WtCom= 1.00D+00 WtEn= 0.00D+00
 Coeff-Com: -0.268D-05 0.615D-05-0.845D-04 0.365D-03-0.141D-02 0.471D-03
 Coeff-Com:  0.679D-01-0.423D+00 0.136D+01
 Coeff:     -0.268D-05 0.615D-05-0.845D-04 0.365D-03-0.141D-02 0.471D-03
 Coeff:      0.679D-01-0.423D+00 0.136D+01
 Gap=     0.566 Goal=   None    Shift=    0.000
 RMSDP=5.97D-08 MaxDP=4.72D-07 DE=-1.87D-11 OVMax= 5.09D-07

 Cycle  10  Pass 1  IDiag  1:
 E= -56.1798206416062     Delta-E=       -0.000000000000 Rises=F Damp=F
 DIIS: error= 5.24D-09 at cycle  10 NSaved=  10.
 NSaved=10 IEnMin=10 EnMin= -56.1798206416062     IErMin=10 ErrMin= 5.24D-09
 ErrMax= 5.24D-09  0.00D+00 EMaxC= 1.00D-01 BMatC= 5.64D-16 BMatP= 1.31D-13
 IDIUse=1 WtCom= 1.00D+00 WtEn= 0.00D+00
 Coeff-Com:  0.467D-06-0.107D-05 0.112D-04-0.520D-04 0.219D-03-0.360D-03
 Coeff-Com: -0.798D-02 0.550D-01-0.208D+00 0.116D+01
 Coeff:      0.467D-06-0.107D-05 0.112D-04-0.520D-04 0.219D-03-0.360D-03
 Coeff:     -0.798D-02 0.550D-01-0.208D+00 0.116D+01
 Gap=     0.566 Goal=   None    Shift=    0.000
 RMSDP=2.39D-09 MaxDP=1.41D-08 DE=-3.98D-13 OVMax= 1.89D-08

 SCF Done:  E(RHF) =  -56.1798206416     A.U. after   10 cycles
            NFock= 10  Conv=0.24D-08     -V/T= 1.9985
 KE= 5.626252398053D+01 PE=-1.560819116810D+02 EE= 3.155468429534D+01
 Leave Link  502 at Sun Jan  4 22:24:13 2026, MaxMem=   104857600 cpu:               0.1 elap:               0.1
 (Enter /opt/QChem/g16/l601.exe)
 Copying SCF densities to generalized density rwf, IOpCl= 0 IROHF=0.

 **********************************************************************

            Population analysis using the SCF Density.

 **********************************************************************

 Orbital symmetries:
       Occupied  (A1) (A1) (E) (E) (A1)
       Virtual   (A1) (E) (E) (E) (E) (A1) (A1) (E) (E) (A1) (A1)
                 (E) (E) (A1) (E) (E) (A1)
 The electronic state is 1-A1.
 Alpha  occ. eigenvalues --  -15.52760  -1.14808  -0.63385  -0.63385  -0.41164
 Alpha virt. eigenvalues --    0.15412   0.22915   0.22915   0.52403   0.52403
 Alpha virt. eigenvalues --    0.64443   0.82976   0.97391   0.97391   1.22688
 Alpha virt. eigenvalues --    2.50737   2.56255   2.56255   4.19514   4.41892
 Alpha virt. eigenvalues --    4.41892  36.70040
          Condensed to atoms (all electrons):
               1          2          3          4
     1  N    6.913786   0.333369   0.333369   0.333369
     2  H    0.333369   0.435311  -0.036656  -0.036656
     3  H    0.333369  -0.036656   0.435311  -0.036656
     4  H    0.333369  -0.036656  -0.036656   0.435311
 Mulliken charges:
               1
     1  N   -0.913894
     2  H    0.304631
     3  H    0.304631
     4  H    0.304631
 Sum of Mulliken charges =  -0.00000
 Mulliken charges with hydrogens summed into heavy atoms:
               1
     1  N   -0.000000
 Electronic spatial extent (au):  <R**2>=             26.1181
 Charge=              0.0000 electrons
 Dipole moment (field-independent basis, Debye):
    X=             -0.0000    Y=             -0.0000    Z=             -1.9642  Tot=              1.9642
 Quadrupole moment (field-independent basis, Debye-Ang):
   XX=             -5.9907   YY=             -5.9907   ZZ=             -9.2191
   XY=             -0.0000   XZ=              0.0000   YZ=              0.0000
 Traceless Quadrupole moment (field-independent basis, Debye-Ang):
   XX=              1.0761   YY=              1.0761   ZZ=             -2.1522
   XY=             -0.0000   XZ=              0.0000   YZ=              0.0000
 Octapole moment (field-independent basis, Debye-Ang**2):
  XXX=             -0.0000  YYY=              0.8408  ZZZ=             -1.6245  XYY=              0.0000
  XXY=             -0.8408  XXZ=             -0.8474  XZZ=              0.0000  YZZ=             -0.0000
  YYZ=             -0.8474  XYZ=              0.0000
 Hexadecapole moment (field-independent basis, Debye-Ang**3):
 XXXX=             -9.2030 YYYY=             -9.2030 ZZZZ=            -10.1033 XXXY=              0.0000
 XXXZ=              0.0000 YYYX=              0.0000 YYYZ=             -0.2817 ZZZX=             -0.0000
 ZZZY=             -0.0000 XXYY=             -3.0677 XXZZ=             -3.2981 YYZZ=             -3.2981
 XXYZ=              0.2817 YYXZ=             -0.0000 ZZXY=              0.0000
 N-N= 1.208488276353D+01 E-N=-1.560819117290D+02  KE= 5.626252398053D+01
 Symmetry A'   KE= 5.366130226478D+01
 Symmetry A"   KE= 2.601221715749D+00
 No NMR shielding tensors so no spin-rotation constants.
 Leave Link  601 at Sun Jan  4 22:24:13 2026, MaxMem=   104857600 cpu:               0.1 elap:               0.1
 (Enter /opt/QChem/g16/l9999.exe)
 Unable to Open any file for archive entry.
 1\1\GINC-NE-07\SP\RHF\6-311G\H3N1\HEICLJ\04-Jan-2026\0\\#p hf/6-311g\\
 Title Card Required\\0,1\N,0,-0.16028597,0.23987679,0.01257084\H,0,0.1
 7303592,-0.7029363,0.01257084\H,0,0.17305313,0.71127697,0.82906757\H,0
 ,0.17305313,0.71127697,-0.80392589\\Version=ES64L-G16RevC.01\State=1-A
 1\HF=-56.1798206\RMSD=2.390e-09\Dipole=0.7727717,-0.0000093,0.\Quadrup
 ole=-1.6001419,0.8000709,0.8000709,0.0000289,0.,0.\PG=C03V [C3(N1),3SG
 V(H1)]\\@
 The archive entry for this job was punched.


 WHEN YOU'VE SEEN ONE NUCLEAR WAR YOU'VE SEEN THEM ALL.
 Job cpu time:       0 days  0 hours  0 minutes  1.4 seconds.
 Elapsed time:       0 days  0 hours  0 minutes  1.2 seconds.
 File lengths (MBytes):  RWF=      6 Int=      0 D2E=      0 Chk=      1 Scr=      1
 Normal termination of Gaussian 16 at Sun Jan  4 22:24:13 2026.
