 Entering Gaussian System, Link 0=g16
 Input=NH3_sto3g.com
 Output=NH3_sto3g.log
 Initial command:
 /opt/QChem/g16/l1.exe "/scratch/heiclj/Gau-1650534.inp" -scrdir="/scratch/heiclj/"
 Entering Link 1 = /opt/QChem/g16/l1.exe PID=   1650539.
  
 Copyright (c) 1988-2019, Gaussian, Inc.  All Rights Reserved.
  
 This is part of the Gaussian(R) 16 program.  It is based on
 the Gaussian(R) 09 system (copyright 2009, Gaussian, Inc.),
 the Gaussian(R) 03 system (copyright 2003, Gaussian, Inc.),
 the Gaussian(R) 98 system (copyright 1998, Gaussian, Inc.),
 the Gaussian(R) 94 system (copyright 1995, Gaussian, Inc.),
 the Gaussian 92(TM) system (copyright 1992, Gaussian, Inc.),
 the Gaussian 90(TM) system (copyright 1990, Gaussian, Inc.),
 the Gaussian 88(TM) system (copyright 1988, Gaussian, Inc.),
 the Gaussian 86(TM) system (copyright 1986, Carnegie Mellon
 University), and the Gaussian 82(TM) system (copyright 1983,
 Carnegie Mellon University). Gaussian is a federally registered
 trademark of Gaussian, Inc.
  
 This software contains proprietary and confidential information,
 including trade secrets, belonging to Gaussian, Inc.
  
 This software is provided under written license and may be
 used, copied, transmitted, or stored only in accord with that
 written license.
  
 The following legend is applicable only to US Government
 contracts under FAR:
  
                    RESTRICTED RIGHTS LEGEND
  
 Use, reproduction and disclosure by the US Government is
 subject to restrictions as set forth in subparagraphs (a)
 and (c) of the Commercial Computer Software - Restricted
 Rights clause in FAR 52.227-19.
  
 Gaussian, Inc.
 340 Quinnipiac St., Bldg. 40, Wallingford CT 06492
  
  
 ---------------------------------------------------------------
 Warning -- This program may not be used in any manner that
 competes with the business of Gaussian, Inc. or will provide
 assistance to any competitor of Gaussian, Inc.  The licensee
 of this program is prohibited from giving any competitor of
 Gaussian, Inc. access to this program.  By using this program,
 the user acknowledges that Gaussian, Inc. is engaged in the
 business of creating and licensing software in the field of
 computational chemistry and represents and warrants to the
 licensee that it is not a competitor of Gaussian, Inc. and that
 it will not use this program in any manner prohibited above.
 ---------------------------------------------------------------
  

 Cite this work as:
 Gaussian 16, Revision C.01,
 M. J. Frisch, G. W. Trucks, H. B. Schlegel, G. E. Scuseria, 
 M. A. Robb, J. R. Cheeseman, G. Scalmani, V. Barone, 
 G. A. Petersson, H. Nakatsuji, X. Li, M. Caricato, A. V. Marenich, 
 J. Bloino, B. G. Janesko, R. Gomperts, B. Mennucci, H. P. Hratchian, 
 J. V. Ortiz, A. F. Izmaylov, J. L. Sonnenberg, D. Williams-Young, 
 F. Ding, F. Lipparini, F. Egidi, J. Goings, B. Peng, A. Petrone, 
 T. Henderson, D. Ranasinghe, V. G. Zakrzewski, J. Gao, N. Rega, 
 G. Zheng, W. Liang, M. Hada, M. Ehara, K. Toyota, R. Fukuda, 
 J. Hasegawa, M. Ishida, T. Nakajima, Y. Honda, O. Kitao, H. Nakai, 
 T. Vreven, K. Throssell, J. A. Montgomery, Jr., J. E. Peralta, 
 F. Ogliaro, M. J. Bearpark, J. J. Heyd, E. N. Brothers, K. N. Kudin, 
 V. N. Staroverov, T. A. Keith, R. Kobayashi, J. Normand, 
 K. Raghavachari, A. P. Rendell, J. C. Burant, S. S. Iyengar, 
 J. Tomasi, M. Cossi, J. M. Millam, M. Klene, C. Adamo, R. Cammi, 
 J. W. Ochterski, R. L. Martin, K. Morokuma, O. Farkas, 
 J. B. Foresman, and D. J. Fox, Gaussian, Inc., Wallingford CT, 2019.
 
 ******************************************
 Gaussian 16:  ES64L-G16RevC.01  3-Jul-2019
                 4-Jan-2026 
 ******************************************
 ------------
 #p hf/sto-3g
 ------------
 1/38=1,172=1/1;
 2/12=2,17=6,18=5,40=1/2;
 3/6=3,11=9,25=1,30=1/1,2,3;
 4//1;
 5/5=2,38=5/2;
 6/7=2,8=2,9=2,10=2,28=1/1;
 99/5=1,9=1/99;
 Leave Link    1 at Sun Jan  4 22:24:10 2026, MaxMem=           0 cpu:               0.0 elap:               0.1
 (Enter /opt/QChem/g16/l101.exe)
 -------------------
 Title Card Required
 -------------------
 Symbolic Z-matrix:
 Charge =  0 Multiplicity = 1
 N                    -0.16029   0.23988   0.01257 
 H                     0.17304  -0.70294   0.01257 
 H                     0.17305   0.71128   0.82907 
 H                     0.17305   0.71128  -0.80393 
 
 ITRead=  0  0  0  0
 MicOpt= -1 -1 -1 -1
 NAtoms=      4 NQM=        4 NQMF=       0 NMMI=      0 NMMIF=      0
                NMic=       0 NMicF=      0.
                    Isotopes and Nuclear Properties:
 (Nuclear quadrupole moments (NQMom) in fm**2, nuclear magnetic moments (NMagM)
  in nuclear magnetons)

  Atom         1           2           3           4
 IAtWgt=          14           1           1           1
 AtmWgt=  14.0030740   1.0078250   1.0078250   1.0078250
 NucSpn=           2           1           1           1
 AtZEff=  -0.0000000  -0.0000000  -0.0000000  -0.0000000
 NQMom=    2.0440000   0.0000000   0.0000000   0.0000000
 NMagM=    0.4037610   2.7928460   2.7928460   2.7928460
 AtZNuc=   7.0000000   1.0000000   1.0000000   1.0000000
 Leave Link  101 at Sun Jan  4 22:24:11 2026, MaxMem=   104857600 cpu:               0.3 elap:               0.3
 (Enter /opt/QChem/g16/l202.exe)
                          Input orientation:                          
 ---------------------------------------------------------------------
 Center     Atomic      Atomic             Coordinates (Angstroms)
 Number     Number       Type             X           Y           Z
 ---------------------------------------------------------------------
      1          7           0       -0.160286    0.239877    0.012571
      2          1           0        0.173036   -0.702936    0.012571
      3          1           0        0.173053    0.711277    0.829068
      4          1           0        0.173053    0.711277   -0.803926
 ---------------------------------------------------------------------
                    Distance matrix (angstroms):
                    1          2          3          4
     1  N    0.000000
     2  H    1.000000   0.000000
     3  H    1.000000   1.632993   0.000000
     4  H    1.000000   1.632993   1.632993   0.000000
 Stoichiometry    H3N
 Framework group  C3V[C3(N),3SGV(H)]
 Deg. of freedom     2
 Full point group                 C3V     NOp   6
 Largest Abelian subgroup         CS      NOp   2
 Largest concise Abelian subgroup CS      NOp   2
                         Standard orientation:                         
 ---------------------------------------------------------------------
 Center     Atomic      Atomic             Coordinates (Angstroms)
 Number     Number       Type             X           Y           Z
 ---------------------------------------------------------------------
      1          7           0       -0.000000    0.000000    0.100000
      2          1           0        0.000000    0.942809   -0.233333
      3          1           0       -0.816497   -0.471405   -0.233333
      4          1           0        0.816497   -0.471405   -0.233333
 ---------------------------------------------------------------------
 Rotational constants (GHZ):         311.9520310         311.9520310         188.0456786
 Leave Link  202 at Sun Jan  4 22:24:11 2026, MaxMem=   104857600 cpu:               0.0 elap:               0.0
 (Enter /opt/QChem/g16/l301.exe)
 Standard basis: STO-3G (5D, 7F)
 Ernie: Thresh=  0.10000D-02 Tol=  0.10000D-05 Strict=F.
 There are     6 symmetry adapted cartesian basis functions of A'  symmetry.
 There are     2 symmetry adapted cartesian basis functions of A"  symmetry.
 There are     6 symmetry adapted basis functions of A'  symmetry.
 There are     2 symmetry adapted basis functions of A"  symmetry.
     8 basis functions,    24 primitive gaussians,     8 cartesian basis functions
     5 alpha electrons        5 beta electrons
       nuclear repulsion energy        12.0848827635 Hartrees.
 IExCor=    0 DFT=F Ex=HF Corr=None ExCW=0 ScaHFX=  1.000000
 ScaDFX=  1.000000  1.000000  1.000000  1.000000 ScalE2=  1.000000  1.000000
 IRadAn=      5 IRanWt=     -1 IRanGd=            0 ICorTp=0 IEmpDi=  4
 NAtoms=    4 NActive=    4 NUniq=    2 SFac= 4.00D+00 NAtFMM=   60 NAOKFM=F Big=F
 Integral buffers will be    131072 words long.
 Raffenetti 1 integral format.
 Two-electron integral symmetry is turned on.
 Leave Link  301 at Sun Jan  4 22:24:11 2026, MaxMem=   104857600 cpu:               0.1 elap:               0.1
 (Enter /opt/QChem/g16/l302.exe)
 NPDir=0 NMtPBC=     1 NCelOv=     1 NCel=       1 NClECP=     1 NCelD=      1
         NCelK=      1 NCelE2=     1 NClLst=     1 CellRange=     0.0.
 One-electron integrals computed using PRISM.
 One-electron integral symmetry used in STVInt
 NBasis=     8 RedAO= T EigKep=  2.62D-01  NBF=     6     2
 NBsUse=     8 1.00D-06 EigRej= -1.00D+00 NBFU=     6     2
 Leave Link  302 at Sun Jan  4 22:24:12 2026, MaxMem=   104857600 cpu:               0.1 elap:               0.1
 (Enter /opt/QChem/g16/l303.exe)
 DipDrv:  MaxL=1.
 Leave Link  303 at Sun Jan  4 22:24:12 2026, MaxMem=   104857600 cpu:               0.0 elap:               0.1
 (Enter /opt/QChem/g16/l401.exe)
 ExpMin= 1.69D-01 ExpMax= 9.91D+01 ExpMxC= 9.91D+01 IAcc=3 IRadAn=         5 AccDes= 0.00D+00
 Harris functional with IExCor=  205 and IRadAn=       5 diagonalized for initial guess.
 HarFok:  IExCor=  205 AccDes= 0.00D+00 IRadAn=         5 IDoV= 1 UseB2=F ITyADJ=14
 ICtDFT=  3500011 ScaDFX=  1.000000  1.000000  1.000000  1.000000
 FoFCou: FMM=F IPFlag=           0 FMFlag=      100000 FMFlg1=           0
         NFxFlg=           0 DoJE=T BraDBF=F KetDBF=T FulRan=T
         wScrn=  0.000000 ICntrl=       500 IOpCl=  0 I1Cent=   200000004 NGrid=           0
         NMat0=    1 NMatS0=      1 NMatT0=    0 NMatD0=    1 NMtDS0=    0 NMtDT0=    0
 Petite list used in FoFCou.
 Harris En= -55.5573445464183    
 JPrj=0 DoOrth=F DoCkMO=F.
 Initial guess orbital symmetries:
       Occupied  (A1) (A1) (E) (E) (A1)
       Virtual   (A1) (E) (E)
 The electronic state of the initial guess is 1-A1.
 Leave Link  401 at Sun Jan  4 22:24:12 2026, MaxMem=   104857600 cpu:               0.2 elap:               0.2
 (Enter /opt/QChem/g16/l502.exe)
 Keep R1 ints in memory in symmetry-blocked form, NReq=804122.
 FoFCou: FMM=F IPFlag=           0 FMFlag=           0 FMFlg1=           0
         NFxFlg=           0 DoJE=F BraDBF=F KetDBF=F FulRan=T
         wScrn=  0.000000 ICntrl=       600 IOpCl=  0 I1Cent=           0 NGrid=           0
         NMat0=    1 NMatS0=     36 NMatT0=    0 NMatD0=    1 NMtDS0=    0 NMtDT0=    0
 Petite list used in FoFCou.
 Closed shell SCF:
 Using DIIS extrapolation, IDIIS=  1040.
 NGot=   104857600 LenX=   104855518 LenY=   104854636
 Requested convergence on RMS density matrix=1.00D-08 within 128 cycles.
 Requested convergence on MAX density matrix=1.00D-06.
 Requested convergence on             energy=1.00D-06.
 No special actions if energy rises.

 Cycle   1  Pass 1  IDiag  1:
 E= -55.3993418771453    
 DIIS: error= 6.25D-02 at cycle   1 NSaved=   1.
 NSaved= 1 IEnMin= 1 EnMin= -55.3993418771453     IErMin= 1 ErrMin= 6.25D-02
 ErrMax= 6.25D-02  0.00D+00 EMaxC= 1.00D-01 BMatC= 4.42D-02 BMatP= 4.42D-02
 IDIUse=3 WtCom= 3.75D-01 WtEn= 6.25D-01
 Coeff-Com:  0.100D+01
 Coeff-En:   0.100D+01
 Coeff:      0.100D+01
 Gap=     0.921 Goal=   None    Shift=    0.000
 GapD=    0.921 DampG=2.000 DampE=0.500 DampFc=1.0000 IDamp=-1.
 RMSDP=3.60D-02 MaxDP=1.25D-01              OVMax= 0.00D+00

 Cycle   2  Pass 1  IDiag  1:
 E= -55.4503728190896     Delta-E=       -0.051030941944 Rises=F Damp=F
 DIIS: error= 8.62D-03 at cycle   2 NSaved=   2.
 NSaved= 2 IEnMin= 2 EnMin= -55.4503728190896     IErMin= 2 ErrMin= 8.62D-03
 ErrMax= 8.62D-03  0.00D+00 EMaxC= 1.00D-01 BMatC= 8.76D-04 BMatP= 4.42D-02
 IDIUse=3 WtCom= 9.14D-01 WtEn= 8.62D-02
 Coeff-Com:  0.907D-01 0.909D+00
 Coeff-En:   0.000D+00 0.100D+01
 Coeff:      0.829D-01 0.917D+00
 Gap=     0.991 Goal=   None    Shift=    0.000
 RMSDP=4.47D-03 MaxDP=1.50D-02 DE=-5.10D-02 OVMax= 0.00D+00

 Cycle   3  Pass 1  IDiag  1:
 E= -55.4512846485084     Delta-E=       -0.000911829419 Rises=F Damp=F
 DIIS: error= 7.36D-04 at cycle   3 NSaved=   3.
 NSaved= 3 IEnMin= 3 EnMin= -55.4512846485084     IErMin= 3 ErrMin= 7.36D-04
 ErrMax= 7.36D-04  0.00D+00 EMaxC= 1.00D-01 BMatC= 7.70D-06 BMatP= 8.76D-04
 IDIUse=3 WtCom= 9.93D-01 WtEn= 7.36D-03
 Coeff-Com: -0.118D-01-0.609D-01 0.107D+01
 Coeff-En:   0.000D+00 0.000D+00 0.100D+01
 Coeff:     -0.118D-01-0.605D-01 0.107D+01
 Gap=     0.990 Goal=   None    Shift=    0.000
 RMSDP=5.64D-04 MaxDP=1.51D-03 DE=-9.12D-04 OVMax= 0.00D+00

 Cycle   4  Pass 1  IDiag  1:
 E= -55.4512981012492     Delta-E=       -0.000013452741 Rises=F Damp=F
 DIIS: error= 1.67D-04 at cycle   4 NSaved=   4.
 NSaved= 4 IEnMin= 4 EnMin= -55.4512981012492     IErMin= 4 ErrMin= 1.67D-04
 ErrMax= 1.67D-04  0.00D+00 EMaxC= 1.00D-01 BMatC= 2.75D-07 BMatP= 7.70D-06
 IDIUse=3 WtCom= 9.98D-01 WtEn= 1.67D-03
 Coeff-Com:  0.179D-02 0.346D-02-0.274D+00 0.127D+01
 Coeff-En:   0.000D+00 0.000D+00 0.000D+00 0.100D+01
 Coeff:      0.178D-02 0.346D-02-0.274D+00 0.127D+01
 Gap=     0.990 Goal=   None    Shift=    0.000
 RMSDP=1.65D-04 MaxDP=5.74D-04 DE=-1.35D-05 OVMax= 0.00D+00

 Cycle   5  Pass 1  IDiag  1:
 E= -55.4512987201376     Delta-E=       -0.000000618888 Rises=F Damp=F
 DIIS: error= 2.34D-05 at cycle   5 NSaved=   5.
 NSaved= 5 IEnMin= 5 EnMin= -55.4512987201376     IErMin= 5 ErrMin= 2.34D-05
 ErrMax= 2.34D-05  0.00D+00 EMaxC= 1.00D-01 BMatC= 4.67D-09 BMatP= 2.75D-07
 IDIUse=1 WtCom= 1.00D+00 WtEn= 0.00D+00
 Coeff-Com: -0.113D-02-0.165D-02 0.174D+00-0.830D+00 0.166D+01
 Coeff:     -0.113D-02-0.165D-02 0.174D+00-0.830D+00 0.166D+01
 Gap=     0.990 Goal=   None    Shift=    0.000
 RMSDP=3.96D-05 MaxDP=1.57D-04 DE=-6.19D-07 OVMax= 0.00D+00

 Cycle   6  Pass 1  IDiag  1:
 E= -55.4512987350460     Delta-E=       -0.000000014908 Rises=F Damp=F
 DIIS: error= 1.82D-07 at cycle   6 NSaved=   6.
 NSaved= 6 IEnMin= 6 EnMin= -55.4512987350460     IErMin= 6 ErrMin= 1.82D-07
 ErrMax= 1.82D-07  0.00D+00 EMaxC= 1.00D-01 BMatC= 3.45D-13 BMatP= 4.67D-09
 IDIUse=1 WtCom= 1.00D+00 WtEn= 0.00D+00
 Coeff-Com:  0.111D-05 0.208D-04 0.959D-04-0.188D-02 0.554D-02 0.996D+00
 Coeff:      0.111D-05 0.208D-04 0.959D-04-0.188D-02 0.554D-02 0.996D+00
 Gap=     0.990 Goal=   None    Shift=    0.000
 RMSDP=1.08D-07 MaxDP=3.02D-07 DE=-1.49D-08 OVMax= 0.00D+00

 Cycle   7  Pass 1  IDiag  1:
 E= -55.4512987350464     Delta-E=       -0.000000000000 Rises=F Damp=F
 DIIS: error= 3.61D-10 at cycle   7 NSaved=   7.
 NSaved= 7 IEnMin= 7 EnMin= -55.4512987350464     IErMin= 7 ErrMin= 3.61D-10
 ErrMax= 3.61D-10  0.00D+00 EMaxC= 1.00D-01 BMatC= 7.59D-19 BMatP= 3.45D-13
 IDIUse=1 WtCom= 1.00D+00 WtEn= 0.00D+00
 Coeff-Com: -0.148D-10 0.121D-08-0.206D-06 0.168D-05-0.240D-05 0.976D-03
 Coeff-Com:  0.999D+00
 Coeff:     -0.148D-10 0.121D-08-0.206D-06 0.168D-05-0.240D-05 0.976D-03
 Coeff:      0.999D+00
 Gap=     0.990 Goal=   None    Shift=    0.000
 RMSDP=2.05D-10 MaxDP=7.22D-10 DE=-3.98D-13 OVMax= 0.00D+00

 SCF Done:  E(RHF) =  -55.4512987350     A.U. after    7 cycles
            NFock=  7  Conv=0.21D-09     -V/T= 2.0057
 KE= 5.513811768808D+01 PE=-1.544307703779D+02 EE= 3.175647119120D+01
 Leave Link  502 at Sun Jan  4 22:24:13 2026, MaxMem=   104857600 cpu:               0.1 elap:               0.1
 (Enter /opt/QChem/g16/l601.exe)
 Copying SCF densities to generalized density rwf, IOpCl= 0 IROHF=0.

 **********************************************************************

            Population analysis using the SCF Density.

 **********************************************************************

 Orbital symmetries:
       Occupied  (A1) (A1) (E) (E) (A1)
       Virtual   (A1) (E) (E)
 The electronic state is 1-A1.
 Alpha  occ. eigenvalues --  -15.29612  -1.08818  -0.58020  -0.58020  -0.34516
 Alpha virt. eigenvalues --    0.64506   0.75537   0.75537
          Condensed to atoms (all electrons):
               1          2          3          4
     1  N    6.442948   0.349623   0.349623   0.349623
     2  H    0.349623   0.556690  -0.035126  -0.035126
     3  H    0.349623  -0.035126   0.556690  -0.035126
     4  H    0.349623  -0.035126  -0.035126   0.556690
 Mulliken charges:
               1
     1  N   -0.491817
     2  H    0.163939
     3  H    0.163939
     4  H    0.163939
 Sum of Mulliken charges =  -0.00000
 Mulliken charges with hydrogens summed into heavy atoms:
               1
     1  N   -0.000000
 Electronic spatial extent (au):  <R**2>=             24.7261
 Charge=             -0.0000 electrons
 Dipole moment (field-independent basis, Debye):
    X=             -0.0000    Y=              0.0000    Z=             -1.6501  Tot=              1.6501
 Quadrupole moment (field-independent basis, Debye-Ang):
   XX=             -5.8040   YY=             -5.8040   ZZ=             -7.7202
   XY=             -0.0000   XZ=              0.0000   YZ=             -0.0000
 Traceless Quadrupole moment (field-independent basis, Debye-Ang):
   XX=              0.6387   YY=              0.6387   ZZ=             -1.2775
   XY=             -0.0000   XZ=              0.0000   YZ=             -0.0000
 Octapole moment (field-independent basis, Debye-Ang**2):
  XXX=             -0.0000  YYY=              0.6488  ZZZ=             -0.7007  XYY=              0.0000
  XXY=             -0.6488  XXZ=             -0.5044  XZZ=              0.0000  YZZ=              0.0000
  YYZ=             -0.5044  XYZ=              0.0000
 Hexadecapole moment (field-independent basis, Debye-Ang**3):
 XXXX=             -8.7963 YYYY=             -8.7963 ZZZZ=             -6.2290 XXXY=              0.0000
 XXXZ=              0.0000 YYYX=             -0.0000 YYYZ=             -0.2211 ZZZX=             -0.0000
 ZZZY=             -0.0000 XXYY=             -2.9321 XXZZ=             -2.5799 YYZZ=             -2.5799
 XXYZ=              0.2211 YYXZ=             -0.0000 ZZXY=              0.0000
 N-N= 1.208488276353D+01 E-N=-1.544307703772D+02  KE= 5.513811768808D+01
 Symmetry A'   KE= 5.277736386135D+01
 Symmetry A"   KE= 2.360753826735D+00
 No NMR shielding tensors so no spin-rotation constants.
 Leave Link  601 at Sun Jan  4 22:24:13 2026, MaxMem=   104857600 cpu:               0.1 elap:               0.1
 (Enter /opt/QChem/g16/l9999.exe)
 Unable to Open any file for archive entry.
 1\1\GINC-NE-07\SP\RHF\STO-3G\H3N1\HEICLJ\04-Jan-2026\0\\#p hf/sto-3g\\
 Title Card Required\\0,1\N,0,-0.16028597,0.23987679,0.01257084\H,0,0.1
 7303592,-0.7029363,0.01257084\H,0,0.17305313,0.71127697,0.82906757\H,0
 ,0.17305313,0.71127697,-0.80392589\\Version=ES64L-G16RevC.01\State=1-A
 1\HF=-55.4512987\RMSD=2.051e-10\Dipole=0.6491914,-0.0000078,0.\Quadrup
 ole=-0.9497683,0.4748842,0.4748842,0.0000172,0.,0.\PG=C03V [C3(N1),3SG
 V(H1)]\\@
 The archive entry for this job was punched.


 WHEN YOU'VE SEEN ONE NUCLEAR WAR YOU'VE SEEN THEM ALL.
 Job cpu time:       0 days  0 hours  0 minutes  1.3 seconds.
 Elapsed time:       0 days  0 hours  0 minutes  1.2 seconds.
 File lengths (MBytes):  RWF=      6 Int=      0 D2E=      0 Chk=      1 Scr=      1
 Normal termination of Gaussian 16 at Sun Jan  4 22:24:13 2026.
